********************************************************************************
*                       GENERAL UTILITY LATTICE PROGRAM                        *
*                                 Julian Gale                                  *
*                      Nanochemistry Research Institute                        *
*             Curtin University of Technology, Western Australia               *
********************************************************************************
* Version = 3.4.9 * Last modified =  23rd October 2009                         *
********************************************************************************
*  optimise     - perform optimisation run                                     *
*  conp         - constant pressure calculation                                *
*  conjugate    - use conjugate gradients minimiser                            *
********************************************************************************

  Job Started  at 17:07.06 16th December   2010                               

  Number of CPUs =     1


  Total number of configurations input =   1

********************************************************************************
*  Input for Configuration =   1                                               *
********************************************************************************

  Formula = Ti4O8                                                       

  Number of irreducible atoms/shells =      12


  Total number atoms/shells =      12

  Dimensionality = 3               :  Bulk   



  Cartesian lattice vectors (Angstroms) :

        5.597850    0.000000    0.000000
       -1.499003    6.786225    0.000000
       -2.678198   -1.099560    6.436553

  Cell parameters (Angstroms/Degrees):

  a =       5.5978    alpha =  94.0301
  b =       6.9498    beta  = 112.3010
  c =       7.0577    gamma = 102.4560

  Initial cell volume =         244.513502 Angs**3

  Temperature of configuration =  0.000     K 

  Pressure of configuration =         0.000 GPa 

  Fractional coordinates of asymmetric unit :

--------------------------------------------------------------------------------
   No.  Atomic       x           y          z         Charge      Occupancy
        Label      (Frac)      (Frac)     (Frac)        (e)         (Frac)  
--------------------------------------------------------------------------------
      1 Ti    c    0.000000    0.000000    0.000000      2.1960    1.000000    
      2 Ti    c    0.607688 *  0.281597 *  0.946843 *    2.1960    1.000000    
      3 Ti    c    0.292122 *  0.716584 *  0.340318 *    2.1960    1.000000    
      4 Ti    c    0.427687 *  0.029458 *  0.292787 *    2.1960    1.000000    
      5 O     c    0.508080 *  0.337149 *  0.127029 *   -1.0980    1.000000    
      6 O     c    0.229947 *  0.024330 *  0.686473 *   -1.0980    1.000000    
      7 O     c    0.803305 *  0.326557 *  0.453252 *   -1.0980    1.000000    
      8 O     c    0.301579 *  0.351652 *  0.180776 *   -1.0980    1.000000    
      9 O     c    0.196731 *  0.108888 *  0.333546 *   -1.0980    1.000000    
     10 O     c    0.882443 *  0.668510 *  0.905024 *   -1.0980    1.000000    
     11 O     c    0.257850 *  0.438730 *  0.624024 *   -1.0980    1.000000    
     12 O     c    0.422896 *  0.412608 *  0.968053 *   -1.0980    1.000000    
--------------------------------------------------------------------------------



********************************************************************************
*  General input information                                                   *
********************************************************************************

  Species output for all configurations : 

--------------------------------------------------------------------------------
  Species    Type    Atomic    Atomic    Charge       Radii (Angs)     Library
                     Number     Mass       (e)     Cova   Ionic  VDW   Symbol
--------------------------------------------------------------------------------
    Ti       Core       22      47.88     2.1960   1.470  0.000  2.190          
    O        Core        8      16.00    -1.0980   0.730  0.000  1.360          
--------------------------------------------------------------------------------


  Lattice summation method               =    Ewald
  Accuracy factor for lattice sums       =    8.000


  Time limit = Infinity

  Maximum range for interatomic potentials =    100000.000000 Angstroms

  General interatomic potentials :

--------------------------------------------------------------------------------
Atom  Types   Potential         A         B         C         D     Cutoffs(Ang)
  1     2                                                            Min    Max 
--------------------------------------------------------------------------------
Ti   c Ti   c Buckingham    0.311E+05 0.154     5.25     0.00       0.000 15.000
O    c O    c Buckingham    0.118E+05 0.234     30.2     0.00       0.000 15.000
O    c Ti   c Buckingham    0.170E+05 0.194     12.6     0.00       0.000 15.000
Ti   c Ti   c Lennard 12  6  1.00      0.00     0.00      0.00      0.000 15.000
O    c O    c Lennard 12  6  1.00      0.00     0.00      0.00      0.000 15.000
O    c Ti   c Lennard 12  6  1.00      0.00     0.00      0.00      0.000 15.000
--------------------------------------------------------------------------------

********************************************************************************
*  Output for configuration   1                                                *
********************************************************************************


  Components of energy : 

--------------------------------------------------------------------------------
  Interatomic potentials     =          95.17914317 eV
  Monopole - monopole (real) =         -18.49467552 eV
  Monopole - monopole (recip)=         -72.72598187 eV
  Monopole - monopole (total)=         -91.22065739 eV
--------------------------------------------------------------------------------
  Total lattice energy       =           3.95848578 eV
--------------------------------------------------------------------------------
  Total lattice energy       =             381.9334 kJ/(mole unit cells)
--------------------------------------------------------------------------------


  Number of variables =     39

  Maximum number of calculations  =          1000
  Maximum Hessian update interval =            10
  Maximum step size               =   1.000000000
  Maximum parameter tolerance     =   0.000010000
  Maximum function  tolerance     =   0.000010000
  Maximum gradient  tolerance     =   0.001000000
  Maximum gradient  component     =   0.010000000

  Symmetry not applied to optimisation

  Cell parameters to be optimised using strains

  Conjugate gradient optimiser to be used

  Minimiser to switch to BFGS with exact hessian
  When gradient norm is less than     0.500000

  Start of bulk optimisation :

  Cycle:      0 Energy:         3.958486  Gnorm:     63.402832  CPU:    0.010
  Cycle:      1 Energy:       -82.488040  Gnorm:      8.797618  CPU:    0.023
  Cycle:      2 Energy:      -120.276329  Gnorm:      4.444902  CPU:    0.040
  Cycle:      3 Energy:      -128.157732  Gnorm:      2.960031  CPU:    0.053
  Cycle:      4 Energy:      -132.103473  Gnorm:      2.262805  CPU:    0.067
  Cycle:      5 Energy:      -135.175969  Gnorm:      1.550700  CPU:    0.073
  Cycle:      6 Energy:      -139.072995  Gnorm:      1.791619  CPU:    0.093
  Cycle:      7 Energy:      -142.469988  Gnorm:      2.217095  CPU:    0.103
  Cycle:      8 Energy:      -143.940725  Gnorm:      2.245809  CPU:    0.117
  Cycle:      9 Energy:      -146.422341  Gnorm:      1.307383  CPU:    0.130
  Cycle:     10 Energy:      -147.103912  Gnorm:      0.944156  CPU:    0.143
  Cycle:     11 Energy:      -148.428662  Gnorm:      1.023727  CPU:    0.157
  Cycle:     12 Energy:      -149.177378  Gnorm:      1.160983  CPU:    0.167
  Cycle:     13 Energy:      -150.457552  Gnorm:      0.968533  CPU:    0.183
  Cycle:     14 Energy:      -151.196465  Gnorm:      0.710955  CPU:    0.193
  Cycle:     15 Energy:      -151.798589  Gnorm:      0.546510  CPU:    0.210
  Cycle:     16 Energy:      -152.157911  Gnorm:      0.572090  CPU:    0.223
  Cycle:     17 Energy:      -152.552447  Gnorm:      0.499671  CPU:    0.237
  ** Hessian calculated **
  Cycle:     18 Energy:      -152.990274  Gnorm:      0.389774  CPU:    0.260
  Cycle:     19 Energy:      -153.263813  Gnorm:      0.230994  CPU:    0.270
  Cycle:     20 Energy:      -153.388206  Gnorm:      0.453573  CPU:    0.283
  Cycle:     21 Energy:      -153.483418  Gnorm:      0.292427  CPU:    0.293
  Cycle:     22 Energy:      -153.537403  Gnorm:      0.167420  CPU:    0.307
  Cycle:     23 Energy:      -153.573357  Gnorm:      0.110097  CPU:    0.317
  Cycle:     24 Energy:      -153.585664  Gnorm:      0.076513  CPU:    0.330
  Cycle:     25 Energy:      -153.596159  Gnorm:      0.053496  CPU:    0.343
  Cycle:     26 Energy:      -153.601377  Gnorm:      0.041336  CPU:    0.357
  Cycle:     27 Energy:      -153.608946  Gnorm:      0.039643  CPU:    0.370
  ** Hessian calculated **
  Cycle:     28 Energy:      -153.631238  Gnorm:      0.074080  CPU:    0.400
  Cycle:     29 Energy:      -153.644778  Gnorm:      0.166952  CPU:    0.410
  Cycle:     30 Energy:      -153.675323  Gnorm:      0.155589  CPU:    0.423
  Cycle:     31 Energy:      -153.729199  Gnorm:      0.149563  CPU:    0.437
  Cycle:     32 Energy:      -153.783939  Gnorm:      0.148504  CPU:    0.450
  Cycle:     33 Energy:      -153.802919  Gnorm:      0.139692  CPU:    0.460
  Cycle:     34 Energy:      -153.824419  Gnorm:      0.095841  CPU:    0.473
  Cycle:     35 Energy:      -153.833399  Gnorm:      0.045948  CPU:    0.483
  Cycle:     36 Energy:      -153.836540  Gnorm:      0.038061  CPU:    0.493
  Cycle:     37 Energy:      -153.838264  Gnorm:      0.032669  CPU:    0.510
  ** Hessian calculated **
  Cycle:     38 Energy:      -153.840981  Gnorm:      0.011270  CPU:    0.530
  Cycle:     39 Energy:      -153.841233  Gnorm:      0.003687  CPU:    0.543
  Cycle:     40 Energy:      -153.841254  Gnorm:      0.000710  CPU:    0.557


  **** Optimisation achieved ****


  Final energy =    -153.84125481 eV
  Final Gnorm  =       0.00039147

  Components of energy : 

--------------------------------------------------------------------------------
  Interatomic potentials     =          12.96938924 eV
  Monopole - monopole (real) =         -74.82291955 eV
  Monopole - monopole (recip)=         -91.98772450 eV
  Monopole - monopole (total)=        -166.81064405 eV
--------------------------------------------------------------------------------
  Total lattice energy       =        -153.84125481 eV
--------------------------------------------------------------------------------
  Total lattice energy       =          -14843.3294 kJ/(mole unit cells)
--------------------------------------------------------------------------------

  Final fractional coordinates of atoms :

--------------------------------------------------------------------------------
   No.  Atomic        x           y          z          Radius
        Label       (Frac)      (Frac)     (Frac)       (Angs) 
--------------------------------------------------------------------------------
     1  Ti    c     0.000000    0.000000    0.000000    0.000000
     2  Ti    c     0.568223    0.262046    0.874270    0.000000
     3  Ti    c     0.253450    0.452469    0.267014    0.000000
     4  Ti    c     0.521303    0.000494    0.313058    0.000000
     5  O     c     0.741859    0.980622    0.139981    0.000000
     6  O     c     0.278815    0.085089    0.899292    0.000000
     7  O     c     0.705344    0.041286    0.676063    0.000000
     8  O     c     0.239330    0.133636    0.343420    0.000000
     9  O     c     0.243423    0.759252    0.177514    0.000000
    10  O     c     0.931467    0.350435    0.001860    0.000000
    11  O     c     0.425672    0.487020    0.630622    0.000000
    12  O     c     0.548081    0.357829    0.205725    0.000000
--------------------------------------------------------------------------------

  Final Cartesian lattice vectors (Angstroms) :

        5.620649    0.477937    0.365612
       -0.925709    5.843389    0.501761
       -2.362594   -0.627424    4.899388


  Final cell parameters and derivatives :

--------------------------------------------------------------------------------
       a            5.652768 Angstrom     dE/de1(xx)     0.000230 eV/strain
       b            5.937499 Angstrom     dE/de2(yy)    -0.003410 eV/strain
       c            5.475355 Angstrom     dE/de3(zz)     0.000649 eV/strain
       alpha       88.274139 Degrees      dE/de4(yz)     0.001749 eV/strain
       beta       112.386842 Degrees      dE/de5(xz)     0.000723 eV/strain
       gamma       93.804268 Degrees      dE/de6(xy)    -0.001044 eV/strain
--------------------------------------------------------------------------------

  Primitive cell volume =           169.544073 Angs**3

  Density of cell =      3.129475 g/cm**3

  Non-primitive cell volume =           169.544073 Angs**3


  Final internal derivatives :

--------------------------------------------------------------------------------
   No.  Atomic          x             y             z           Radius
        Label          (eV)          (eV)          (eV)        (eV/Angs)
--------------------------------------------------------------------------------
      1 Ti    c       0.000000      0.000000      0.000000      0.000000
      2 Ti    c      -0.003234      0.000190      0.001800      0.000000
      3 Ti    c      -0.002929      0.002423     -0.000411      0.000000
      4 Ti    c       0.005357      0.002976     -0.005363      0.000000
      5 O     c       0.000925      0.000698     -0.001432      0.000000
      6 O     c      -0.003438      0.001017      0.002621      0.000000
      7 O     c      -0.000153      0.000030      0.001128      0.000000
      8 O     c      -0.000319      0.005251      0.001097      0.000000
      9 O     c      -0.001287     -0.004426      0.000456      0.000000
     10 O     c       0.001089     -0.000723      0.000444      0.000000
     11 O     c      -0.000423     -0.000906     -0.000135      0.000000
     12 O     c       0.001944     -0.006316      0.000553      0.000000
--------------------------------------------------------------------------------
  Maximum abs         0.005357      0.006316      0.005363      0.000000
--------------------------------------------------------------------------------


  Time to end of optimisation =       0.5700 seconds


  Peak dynamic memory used =       0.50 MB 


  Timing analysis for GULP :

--------------------------------------------------------------------------------
  Task / Subroutine                                          Time (Seconds)
--------------------------------------------------------------------------------
  Calculation of reciprocal space energy and derivatives          0.0167
  Calculation of real space energy and derivatives                0.5500
--------------------------------------------------------------------------------
  Total CPU time                                                  0.5700
--------------------------------------------------------------------------------


  Job Finished at 17:07.07 16th December   2010                               

