 +-------------------------------------------------+
 |                                                 |
 |      CCC   AA    SSS  TTTTT  EEEEE  PPPP        |
 |     C     A  A  S       T    E      P   P       |
 |     C     AAAA   SS     T    EEE    PPPP        |
 |     C     A  A     S    T    E      P           |
 |      CCC  A  A  SSS     T    EEEEE  P           |
 |                                                 |
 +-------------------------------------------------+
 |                                                 |
 | Welcome to Academic Release CASTEP version 4.0  |
 | Ab Initio Total Energy Program                  |
 |                                                 |
 | Authors:                                        |
 | M. Segall, M. Probert, C. Pickard, P. Hasnip    |
 | S. Clark, K. Refson, M. Payne                   |
 |                                                 |
 | Contributors:                                   |
 | P. Lindan, P. Haynes, J. White, V. Milman       |
 | N. Govind, M. Gibson, P. Tulip, V. Cocula       |
 | B. Montanari, D. Quigley, M. Glover             |
 |                                                 |
 | Copyright (c) 2000,2001,2002,2003,2004,2005     |
 |                                                 |
 |     Distributed under the terms of an           |
 |     Agreement between the United Kingdom        |
 |     Car-Parrinello (UKCP) Consortium,           |
 |     Daresbury Laboratory and Accelrys, Inc.     |
 |                                                 |
 | Please cite                                     |
 |                                                 |
 |    "First-principles simulation: ideas,         |
 |    illustrations and the CASTEP code",          |
 |                                                 |
 | J. Phys.: Cond. Matt. 14(11) pp.2717-2743 (2002)|
 |                                                 |
 | M. D. Segall, P. J. D. Lindan, M. J. Probert,   |
 | C. J. Pickard, P. J. Hasnip, S. J. Clark,       |
 | M. C. Payne                                     |
 |                                                 |
 |       in all publications arising from          |
 |              your use of CASTEP                 |
 |                                                 |
 +-------------------------------------------------+


 Atomic calculation performed for H: 1s1

 Converged in 41 iterations to an ae energy of -12.134 eV

 Identity difference:  0.00008829528622340149

   ============================================================                
   | Pseudopotential Report - Date of generation 25-06-2017   |                
   ------------------------------------------------------------                
   | Element: H Ionic charge:  1.00 Level of theory: LDA      |                
   |                                                          |                
   |               Reference Electronic Structure             |                
   |         Orbital         Occupation         Energy        |                
   |            1s              1.000           -0.234        |                
   |                                                          |                
   |                 Pseudopotential Definition               |                
   |        Beta     l      e      Rc     scheme   norm       |                
   |          1      0   -0.234  0.8027     qc      0         |                
   |          2      0    0.250  0.8027     qc      0         |                
   |         loc     1    0.000  0.8027     pn      0         |                
   |                                                          |                
   | Augmentation charge Rinner = 0.599                       |                
   | No partial core correction                               |                
   ------------------------------------------------------------                
   | "1|0.8|0.8|0.6|2|6|8|10(qc=6)#[]"                        |                
   ------------------------------------------------------------                
   |      Author: Chris J. Pickard, Cambridge University      |                
   ============================================================                

 Doing a self consistent calculation for the test configuration

 Atomic calculation performed for H: 1s1

 Converged in 41 iterations to an ae energy of -12.134 eV

 ---------------------------------------
 AE eigenvalue nl 10 =       -0.23366400
 ---------------------------------------
 PS eigenvalue nl 10 =       -0.23362698
 ---------------------------------------

 Pseudo atomic calculation performed for H 1s1

 Converged in 15 iterations to a total energy of -12.0488 eV

Calculation parallelised over    1 nodes.
K-points are distributed over    1 groups, each containing    1 nodes.

 ************************************ Title ************************************
 

 ***************************** General Parameters ******************************
  
 output verbosity                               : normal  (1)
 write checkpoint data to                       : xtal.check
 type of calculation                            : geometry optimization
 stress calculation                             : off
 density difference calculation                 : off
 unlimited duration calculation
 timing information                             : on

 *********************** Exchange-Correlation Parameters ***********************
  
 using functional                               : Local Density Approximation
 Divergence correction                          : off

 ************************* Pseudopotential Parameters **************************
  
 pseudopotential representation                 : reciprocal space
 <beta|phi> representation                      : reciprocal space

 **************************** Basis Set Parameters *****************************
  
 basis set accuracy                             : FINE
 finite basis set correction                    : automatic

 **************************** Electronic Parameters ****************************
  
 number of  electrons                           :          2
 net charge of system                           :          0
 net spin   of system                           :          0
 number of  up  spins                           :          1
 number of down spins                           :          1
 treating system as non-spin-polarized
 number of bands                                :          5

 ********************* Electronic Minimization Parameters **********************
  
 Method: Treating system as metallic with density mixing treatment of electrons,
         and number of  SD  steps               :          1
         and number of  CG  steps               :          4
  
 total energy / atom convergence tol.           : 0.1000E-04   eV
 eigen-energy convergence tolerance             : 0.1000E-05   eV
 periodically dump wavefunctions to             : xtal.wvfn
 dump wavefunctions every                       :          5   SCF cycles

 ************************** Density Mixing Parameters **************************
  
 density-mixing scheme                          : Broyden
 max. length of mixing history                  :          7

 *********************** Population Analysis Parameters ************************
  
 Population analysis with cutoff                :  3.000       A

 ********************** Geometry Optimization Parameters ***********************
  
 optimization method                            : BFGS
 variable cell method                           : fixed basis quality
 max. number of steps                           :         30
 estimated bulk modulus                         :  500.0       GPa
 estimated <frequency>                          :  1668.       cm-1
 total energy convergence tolerance             : 0.2000E-04   eV/atom
        max ionic |force| tolerance             : 0.5000E-01   eV/A
 max ionic |displacement| tolerance             : 0.1000E-02   A
   max |stress component| tolerance             : 0.1000       GPa
 convergence tolerance window                   :          2   steps
 backup results every                           :          5   steps

 *******************************************************************************
  

                           -------------------------------
                                      Unit Cell
                           -------------------------------
        Real Lattice(A)                      Reciprocal Lattice(1/A)
   1.7380200   0.0000000   0.0000000        3.6151398   1.9626508   1.5598891
  -0.8680770   1.5989700   0.0000000        0.0000000   3.9295204   0.8414269
  -0.6528220  -0.4434390   2.0708900        0.0000000   0.0000000   3.0340507

                       Lattice parameters(A)       Cell Angles
                    a =    1.738020          alpha =   92.023131
                    b =    1.819413          beta  =  107.131901
                    c =    2.216168          gamma =  118.497430

                       Current cell volume =    5.755090       A**3

                           -------------------------------
                                     Cell Contents
                           -------------------------------
                         Total number of ions in cell =    2
                      Total number of species in cell =    1
                        Max number of any one species =    2

            xxxxxxxxxxxxxxxxxxxxxxxxxxxxxxxxxxxxxxxxxxxxxxxxxxxxxxxxxxxx
            x  Element    Atom        Fractional coordinates of atoms  x
            x            Number           u          v          w      x
            x----------------------------------------------------------x
            x  H            1         0.000000   0.000000   0.000000   x
            x  H            2         0.806513   0.329054   0.049917   x
            xxxxxxxxxxxxxxxxxxxxxxxxxxxxxxxxxxxxxxxxxxxxxxxxxxxxxxxxxxxx


                         No user defined ionic velocities

                           -------------------------------
                                   Details of Species
                           -------------------------------

                               Mass of species in AMU
                                    H    1.0079400

                          Electric Quadrupole Moment (Barn)
                                    H    0.0028600 Isotope  2

                          Files used for pseudopotentials:
                                    H NULL.NULL

                           -------------------------------
                              k-Points For BZ Sampling
                           -------------------------------
                       MP grid size for SCF calculation is  8  7  5
                         Number of kpoints used = 140

             +++++++++++++++++++++++++++++++++++++++++++++++++++++++
             +  Number       Fractional coordinates        Weight  +
             +-----------------------------------------------------+
             +     1  -0.062500   0.428571   0.400000   0.0071429  +
             +     2  -0.062500   0.428571   0.200000   0.0071429  +
             +     3  -0.062500   0.428571   0.000000   0.0071429  +
             +     4   0.062500  -0.428571   0.200000   0.0071429  +
             +     5   0.062500  -0.428571   0.400000   0.0071429  +
             +     6  -0.062500   0.285714   0.400000   0.0071429  +
             +     7  -0.062500   0.285714   0.200000   0.0071429  +
             +     8  -0.062500   0.285714   0.000000   0.0071429  +
             +     9   0.062500  -0.285714   0.200000   0.0071429  +
             +    10   0.062500  -0.285714   0.400000   0.0071429  +
             +    11  -0.062500   0.142857   0.400000   0.0071429  +
             +    12  -0.062500   0.142857   0.200000   0.0071429  +
             +    13  -0.062500   0.142857   0.000000   0.0071429  +
             +    14   0.062500  -0.142857   0.200000   0.0071429  +
             +    15   0.062500  -0.142857   0.400000   0.0071429  +
             +    16  -0.062500   0.000000   0.400000   0.0071429  +
             +    17  -0.062500   0.000000   0.200000   0.0071429  +
             +    18   0.062500  -0.000000  -0.000000   0.0071429  +
             +    19   0.062500  -0.000000   0.200000   0.0071429  +
             +    20   0.062500  -0.000000   0.400000   0.0071429  +
             +    21  -0.062500  -0.142857   0.400000   0.0071429  +
             +    22  -0.062500  -0.142857   0.200000   0.0071429  +
             +    23   0.062500   0.142857  -0.000000   0.0071429  +
             +    24   0.062500   0.142857   0.200000   0.0071429  +
             +    25   0.062500   0.142857   0.400000   0.0071429  +
             +    26  -0.062500  -0.285714   0.400000   0.0071429  +
             +    27  -0.062500  -0.285714   0.200000   0.0071429  +
             +    28   0.062500   0.285714  -0.000000   0.0071429  +
             +    29   0.062500   0.285714   0.200000   0.0071429  +
             +    30   0.062500   0.285714   0.400000   0.0071429  +
             +    31  -0.062500  -0.428571   0.400000   0.0071429  +
             +    32  -0.062500  -0.428571   0.200000   0.0071429  +
             +    33   0.062500   0.428571  -0.000000   0.0071429  +
             +    34   0.062500   0.428571   0.200000   0.0071429  +
             +    35   0.062500   0.428571   0.400000   0.0071429  +
             +    36  -0.187500   0.428571   0.400000   0.0071429  +
             +    37  -0.187500   0.428571   0.200000   0.0071429  +
             +    38  -0.187500   0.428571   0.000000   0.0071429  +
             +    39   0.187500  -0.428571   0.200000   0.0071429  +
             +    40   0.187500  -0.428571   0.400000   0.0071429  +
             +    41  -0.187500   0.285714   0.400000   0.0071429  +
             +    42  -0.187500   0.285714   0.200000   0.0071429  +
             +    43  -0.187500   0.285714   0.000000   0.0071429  +
             +    44   0.187500  -0.285714   0.200000   0.0071429  +
             +    45   0.187500  -0.285714   0.400000   0.0071429  +
             +    46  -0.187500   0.142857   0.400000   0.0071429  +
             +    47  -0.187500   0.142857   0.200000   0.0071429  +
             +    48  -0.187500   0.142857   0.000000   0.0071429  +
             +    49   0.187500  -0.142857   0.200000   0.0071429  +
             +    50   0.187500  -0.142857   0.400000   0.0071429  +
             +    51  -0.187500   0.000000   0.400000   0.0071429  +
             +    52  -0.187500   0.000000   0.200000   0.0071429  +
             +    53   0.187500  -0.000000  -0.000000   0.0071429  +
             +    54   0.187500  -0.000000   0.200000   0.0071429  +
             +    55   0.187500  -0.000000   0.400000   0.0071429  +
             +    56  -0.187500  -0.142857   0.400000   0.0071429  +
             +    57  -0.187500  -0.142857   0.200000   0.0071429  +
             +    58   0.187500   0.142857  -0.000000   0.0071429  +
             +    59   0.187500   0.142857   0.200000   0.0071429  +
             +    60   0.187500   0.142857   0.400000   0.0071429  +
             +    61  -0.187500  -0.285714   0.400000   0.0071429  +
             +    62  -0.187500  -0.285714   0.200000   0.0071429  +
             +    63   0.187500   0.285714  -0.000000   0.0071429  +
             +    64   0.187500   0.285714   0.200000   0.0071429  +
             +    65   0.187500   0.285714   0.400000   0.0071429  +
             +    66  -0.187500  -0.428571   0.400000   0.0071429  +
             +    67  -0.187500  -0.428571   0.200000   0.0071429  +
             +    68   0.187500   0.428571  -0.000000   0.0071429  +
             +    69   0.187500   0.428571   0.200000   0.0071429  +
             +    70   0.187500   0.428571   0.400000   0.0071429  +
             +    71  -0.312500   0.428571   0.400000   0.0071429  +
             +    72  -0.312500   0.428571   0.200000   0.0071429  +
             +    73  -0.312500   0.428571   0.000000   0.0071429  +
             +    74   0.312500  -0.428571   0.200000   0.0071429  +
             +    75   0.312500  -0.428571   0.400000   0.0071429  +
             +    76  -0.312500   0.285714   0.400000   0.0071429  +
             +    77  -0.312500   0.285714   0.200000   0.0071429  +
             +    78  -0.312500   0.285714   0.000000   0.0071429  +
             +    79   0.312500  -0.285714   0.200000   0.0071429  +
             +    80   0.312500  -0.285714   0.400000   0.0071429  +
             +    81  -0.312500   0.142857   0.400000   0.0071429  +
             +    82  -0.312500   0.142857   0.200000   0.0071429  +
             +    83  -0.312500   0.142857   0.000000   0.0071429  +
             +    84   0.312500  -0.142857   0.200000   0.0071429  +
             +    85   0.312500  -0.142857   0.400000   0.0071429  +
             +    86  -0.312500   0.000000   0.400000   0.0071429  +
             +    87  -0.312500   0.000000   0.200000   0.0071429  +
             +    88   0.312500  -0.000000  -0.000000   0.0071429  +
             +    89   0.312500  -0.000000   0.200000   0.0071429  +
             +    90   0.312500  -0.000000   0.400000   0.0071429  +
             +    91  -0.312500  -0.142857   0.400000   0.0071429  +
             +    92  -0.312500  -0.142857   0.200000   0.0071429  +
             +    93   0.312500   0.142857  -0.000000   0.0071429  +
             +    94   0.312500   0.142857   0.200000   0.0071429  +
             +    95   0.312500   0.142857   0.400000   0.0071429  +
             +    96  -0.312500  -0.285714   0.400000   0.0071429  +
             +    97  -0.312500  -0.285714   0.200000   0.0071429  +
             +    98   0.312500   0.285714  -0.000000   0.0071429  +
             +    99   0.312500   0.285714   0.200000   0.0071429  +
             +   100   0.312500   0.285714   0.400000   0.0071429  +
             +   101  -0.312500  -0.428571   0.400000   0.0071429  +
             +   102  -0.312500  -0.428571   0.200000   0.0071429  +
             +   103   0.312500   0.428571  -0.000000   0.0071429  +
             +   104   0.312500   0.428571   0.200000   0.0071429  +
             +   105   0.312500   0.428571   0.400000   0.0071429  +
             +   106  -0.437500   0.428571   0.400000   0.0071429  +
             +   107  -0.437500   0.428571   0.200000   0.0071429  +
             +   108  -0.437500   0.428571   0.000000   0.0071429  +
             +   109   0.437500  -0.428571   0.200000   0.0071429  +
             +   110   0.437500  -0.428571   0.400000   0.0071429  +
             +   111  -0.437500   0.285714   0.400000   0.0071429  +
             +   112  -0.437500   0.285714   0.200000   0.0071429  +
             +   113  -0.437500   0.285714   0.000000   0.0071429  +
             +   114   0.437500  -0.285714   0.200000   0.0071429  +
             +   115   0.437500  -0.285714   0.400000   0.0071429  +
             +   116  -0.437500   0.142857   0.400000   0.0071429  +
             +   117  -0.437500   0.142857   0.200000   0.0071429  +
             +   118  -0.437500   0.142857   0.000000   0.0071429  +
             +   119   0.437500  -0.142857   0.200000   0.0071429  +
             +   120   0.437500  -0.142857   0.400000   0.0071429  +
             +   121  -0.437500   0.000000   0.400000   0.0071429  +
             +   122  -0.437500   0.000000   0.200000   0.0071429  +
             +   123   0.437500  -0.000000  -0.000000   0.0071429  +
             +   124   0.437500  -0.000000   0.200000   0.0071429  +
             +   125   0.437500  -0.000000   0.400000   0.0071429  +
             +   126  -0.437500  -0.142857   0.400000   0.0071429  +
             +   127  -0.437500  -0.142857   0.200000   0.0071429  +
             +   128   0.437500   0.142857  -0.000000   0.0071429  +
             +   129   0.437500   0.142857   0.200000   0.0071429  +
             +   130   0.437500   0.142857   0.400000   0.0071429  +
             +   131  -0.437500  -0.285714   0.400000   0.0071429  +
             +   132  -0.437500  -0.285714   0.200000   0.0071429  +
             +   133   0.437500   0.285714  -0.000000   0.0071429  +
             +   134   0.437500   0.285714   0.200000   0.0071429  +
             +   135   0.437500   0.285714   0.400000   0.0071429  +
             +   136  -0.437500  -0.428571   0.400000   0.0071429  +
             +   137  -0.437500  -0.428571   0.200000   0.0071429  +
             +   138   0.437500   0.428571  -0.000000   0.0071429  +
             +   139   0.437500   0.428571   0.200000   0.0071429  +
             +   140   0.437500   0.428571   0.400000   0.0071429  +
             +++++++++++++++++++++++++++++++++++++++++++++++++++++++

                           -------------------------------
                               Symmetry and Constraints
                           -------------------------------

         There are no symmetry operations specified or generated for this cell

                          Centre of mass is constrained
                         Number of ionic constraints = 3
                Set iprint > 1 for details of ionic constraints

                         Number of cell constraints= 0
                         Cell constraints are:  1 2 3 4 5 6

                         External pressure/stress (GPa)
                          0.00000   0.00000   0.00000
                                    0.00000   0.00000
                                              0.00000
+---------------- MEMORY AND SCRATCH DISK ESTIMATES PER NODE -----------------+
|                                                     Memory          Disk    |
| Model and support data                               13.0 MB         0.0 MB |
| Electronic energy minimisation requirements           0.8 MB         0.5 MB |
|                                               ----------------------------- |
| Approx. total storage required per node              13.8 MB         0.5 MB |
|                                                                             |
| Requirements will fluctuate during execution and may exceed these estimates |
+-----------------------------------------------------------------------------+
Calculating finite basis set correction with  3 cut-off energies.
Calculating total energy with cut-off of  207.691eV.
------------------------------------------------------------------------ <-- SCF
SCF loop      Energy           Fermi           Energy gain       Timer   <-- SCF
                               energy          per atom          (sec)   <-- SCF
------------------------------------------------------------------------ <-- SCF
Initial   5.28922308E+001  2.47863227E+001                         2.96  <-- SCF
      1  -2.86644315E+001  3.01495331E+000   4.07783311E+001       3.15  <-- SCF
      2  -2.98871087E+001  2.49797577E+000   6.11338619E-001       3.33  <-- SCF
      3  -2.96595422E+001  3.15163397E+000  -1.13783225E-001       3.57  <-- SCF
      4  -2.96481350E+001  3.30997708E+000  -5.70364333E-003       3.78  <-- SCF
      5  -2.96481755E+001  3.31326090E+000   2.02572254E-005       3.95  <-- SCF
      6  -2.96481811E+001  3.31579909E+000   2.79582147E-006       4.11  <-- SCF
      7  -2.96481811E+001  3.31578423E+000   6.83376405E-009       4.26  <-- SCF
------------------------------------------------------------------------ <-- SCF
 
Final energy, E             =  -29.64705359711     eV
Final free energy (E-TS)    =  -29.64818108058     eV
(energies not corrected for finite basis set)
 
NB est. 0K energy (E-0.5TS) =  -29.64761733885     eV
 
Calculating total energy with cut-off of  212.691eV.
------------------------------------------------------------------------ <-- SCF
SCF loop      Energy           Fermi           Energy gain       Timer   <-- SCF
                               energy          per atom          (sec)   <-- SCF
------------------------------------------------------------------------ <-- SCF
Initial  -2.96481811E+001  3.31579614E+000                         4.40  <-- SCF
      1  -2.96703880E+001  3.31295461E+000   1.11034441E-002       4.56  <-- SCF
      2  -2.96704091E+001  3.31295416E+000   1.05732225E-005       4.70  <-- SCF
      3  -2.96704171E+001  3.31405128E+000   3.98776793E-006       4.85  <-- SCF
      4  -2.96704182E+001  3.31414568E+000   5.28483553E-007       5.01  <-- SCF
------------------------------------------------------------------------ <-- SCF
 
Final energy, E             =  -29.66925467118     eV
Final free energy (E-TS)    =  -29.67041816501     eV
(energies not corrected for finite basis set)
 
NB est. 0K energy (E-0.5TS) =  -29.66983641809     eV
 
Calculating total energy with cut-off of  217.691eV.
------------------------------------------------------------------------ <-- SCF
SCF loop      Energy           Fermi           Energy gain       Timer   <-- SCF
                               energy          per atom          (sec)   <-- SCF
------------------------------------------------------------------------ <-- SCF
Initial  -2.96704182E+001  3.31410317E+000                         5.15  <-- SCF
      1  -2.96913806E+001  3.30884164E+000   1.04811992E-002       5.33  <-- SCF
      2  -2.96913985E+001  3.30881205E+000   8.94657826E-006       5.46  <-- SCF
      3  -2.96913931E+001  3.31000714E+000  -2.67461040E-006       5.62  <-- SCF
------------------------------------------------------------------------ <-- SCF
 
Final energy, E             =  -29.69024248829     eV
Final free energy (E-TS)    =  -29.69139311065     eV
(energies not corrected for finite basis set)
 
NB est. 0K energy (E-0.5TS) =  -29.69081779947     eV
 
 For future reference: finite basis dEtot/dlog(Ecut) =      -0.933257eV
 Total energy corrected for finite basis set =     -29.692711 eV
 
+---------------- MEMORY AND SCRATCH DISK ESTIMATES PER NODE -----------------+
|                                                     Memory          Disk    |
| Model and support data                               13.0 MB         0.0 MB |
| Geometry minimisation requirements                    1.3 MB         0.5 MB |
|                                               ----------------------------- |
| Approx. total storage required per node              14.3 MB         0.5 MB |
|                                                                             |
| Requirements will fluctuate during execution and may exceed these estimates |
+-----------------------------------------------------------------------------+
 

 ******************************** Forces *********************************
 *                                                                       *
 *                      Cartesian components (eV/A)                      *
 * --------------------------------------------------------------------- *
 *              x                    y                    z              *
 *                                                                       *
 * H    1     -0.35709              0.46783              0.06413         *
 * H    2      0.35709             -0.46783             -0.06413         *
 *                                                                       *
 *************************************************************************

 ***************** Stress Tensor *****************
 *                                               *
 *          Cartesian components (GPa)           *
 * --------------------------------------------- *
 *             x             y             z     *
 *                                               *
 *  x    -99.014829     -5.555753      0.434349  *
 *  y     -5.555753    -77.070294      3.647738  *
 *  z      0.434349      3.647738     -1.948897  *
 *                                               *
 *  Pressure:   59.3447                          *
 *                                               *
 *************************************************
 BFGS: finished iteration   0  with enthalpy= -2.96927108E+001 eV
  
 +-----------+-----------------+-----------------+------------+-----+ <-- BFGS
 | Parameter |      value      |    tolerance    |    units   | OK? | <-- BFGS
 +-----------+-----------------+-----------------+------------+-----+ <-- BFGS
 |  dE/ion   |   0.000000E+000 |   2.000000E-005 |         eV | No  | <-- BFGS
 |  |F|max   |   5.920283E-001 |   5.000000E-002 |       eV/A | No  | <-- BFGS
 |  |dR|max  |   0.000000E+000 |   1.000000E-003 |          A | No  | <-- BFGS
 |   Smax    |   9.901483E+001 |   1.000000E-001 |        GPa | No  | <-- BFGS
 +-----------+-----------------+-----------------+------------+-----+ <-- BFGS
  

================================================================================
 Starting BFGS iteration          1 ...
================================================================================
  
 +------------+-------------+-------------+-----------------+ <-- min BFGS
 |    Step    |   lambda    |   F.delta   |    enthalpy     | <-- min BFGS
 +------------+-------------+-------------+-----------------+ <-- min BFGS
 |  previous  |    0.000000 |    0.016435 |      -29.692711 | <-- min BFGS
 +------------+-------------+-------------+-----------------+ <-- min BFGS
  

--------------------------------------------------------------------------------
 BFGS: starting iteration         1 with trial guess (lambda=  1.000000)
--------------------------------------------------------------------------------
 
+---------------- MEMORY AND SCRATCH DISK ESTIMATES PER NODE -----------------+
|                                                     Memory          Disk    |
| Model and support data                               13.1 MB         0.0 MB |
| Geometry minimisation requirements                    1.3 MB         0.5 MB |
|                                               ----------------------------- |
| Approx. total storage required per node              14.5 MB         0.5 MB |
|                                                                             |
| Requirements will fluctuate during execution and may exceed these estimates |
+-----------------------------------------------------------------------------+
 

                           -------------------------------
                                      Unit Cell
                           -------------------------------
        Real Lattice(A)              Reciprocal Lattice(1/A)
   1.8527465   0.0064373  -0.0005033        3.3852493   1.8584278   1.5633575
  -0.9194563   1.6779102  -0.0036371       -0.0127621   3.7394972   0.8494134
  -0.6981568  -0.4736770   2.0748480        0.0007987   0.0070058   3.0301311

                       Lattice parameters(A)       Cell Angles
                    a =    1.852758          alpha =   92.145124
                    b =    1.913321          beta  =  108.221230
                    c =    2.239819          gamma =  118.522568

                Current cell volume =    6.458464 A**3

                           -------------------------------
                                     Cell Contents
                           -------------------------------

            xxxxxxxxxxxxxxxxxxxxxxxxxxxxxxxxxxxxxxxxxxxxxxxxxxxxxxxxxxxx
            x  Element    Atom        Fractional coordinates of atoms  x
            x            Number           u          v          w      x
            x----------------------------------------------------------x
            x   H          1         -0.004210   0.029211   0.003004   x
            x   H          2          0.810723   0.299843   0.046914   x
            xxxxxxxxxxxxxxxxxxxxxxxxxxxxxxxxxxxxxxxxxxxxxxxxxxxxxxxxxxxx


------------------------------------------------------------------------ <-- SCF
SCF loop      Energy           Fermi           Energy gain       Timer   <-- SCF
                               energy          per atom          (sec)   <-- SCF
------------------------------------------------------------------------ <-- SCF
Initial  -2.94878695E+001  2.05473091E+000                         5.85  <-- SCF
      1  -3.01337416E+001  1.88500935E+000   3.22936028E-001       6.07  <-- SCF
      2  -3.01350238E+001  1.88443819E+000   6.41085561E-004       6.26  <-- SCF
      3  -3.00777095E+001  2.11342747E+000  -2.86571172E-002       6.49  <-- SCF
      4  -3.00758799E+001  2.16252155E+000  -9.14806936E-004       6.76  <-- SCF
      5  -3.00758822E+001  2.15934637E+000   1.12379850E-006       6.92  <-- SCF
      6  -3.00758825E+001  2.15824474E+000   1.59988628E-007       7.12  <-- SCF
------------------------------------------------------------------------ <-- SCF
 
Final energy, E             =  -30.07588225089     eV
Final free energy (E-TS)    =  -30.07588247074     eV
(energies not corrected for finite basis set)
 
NB est. 0K energy (E-0.5TS) =  -30.07588236082     eV
 

 ******************************** Forces *********************************
 *                                                                       *
 *                      Cartesian components (eV/A)                      *
 * --------------------------------------------------------------------- *
 *              x                    y                    z              *
 *                                                                       *
 * H    1      0.02002              0.02166             -0.05093         *
 * H    2     -0.02002             -0.02166              0.05093         *
 *                                                                       *
 *************************************************************************

 ***************** Stress Tensor *****************
 *                                               *
 *          Cartesian components (GPa)           *
 * --------------------------------------------- *
 *             x             y             z     *
 *                                               *
 *  x    -74.230170      4.588612      3.554553  *
 *  y      4.588612    -61.515960      0.831368  *
 *  z      3.554553      0.831368     -5.626040  *
 *                                               *
 *  Pressure:   47.1241                          *
 *                                               *
 *************************************************
  
 +------------+-------------+-------------+-----------------+ <-- min BFGS
 |    Step    |   lambda    |   F.delta   |    enthalpy     | <-- min BFGS
 +------------+-------------+-------------+-----------------+ <-- min BFGS
 |  previous  |    0.000000 |    0.016435 |      -29.692711 | <-- min BFGS
 | trial step |    1.000000 |    0.011233 |      -30.076705 | <-- min BFGS
 +------------+-------------+-------------+-----------------+ <-- min BFGS
  

--------------------------------------------------------------------------------
 BFGS: improving iteration         1 with line minimization (lambda=  2.302611)
--------------------------------------------------------------------------------
 
+---------------- MEMORY AND SCRATCH DISK ESTIMATES PER NODE -----------------+
|                                                     Memory          Disk    |
| Model and support data                               13.4 MB         0.0 MB |
| Geometry minimisation requirements                    1.5 MB         0.6 MB |
|                                               ----------------------------- |
| Approx. total storage required per node              15.0 MB         0.6 MB |
|                                                                             |
| Requirements will fluctuate during execution and may exceed these estimates |
+-----------------------------------------------------------------------------+
 

                           -------------------------------
                                      Unit Cell
                           -------------------------------
        Real Lattice(A)              Reciprocal Lattice(1/A)
   2.0021905   0.0148227  -0.0011588        3.1261881   1.7390224   1.5670232
  -0.9863837   1.7807385  -0.0083747       -0.0255499   3.5183005   0.8585423
  -0.7572104  -0.5130653   2.0800038        0.0016388   0.0151346   3.0250864

                       Lattice parameters(A)       Cell Angles
                    a =    2.002246          alpha =   92.281684
                    b =    2.035695          beta  =  109.599176
                    c =    2.272228          gamma =  118.558280

                Current cell volume =    7.435753 A**3

                           -------------------------------
                                     Cell Contents
                           -------------------------------

            xxxxxxxxxxxxxxxxxxxxxxxxxxxxxxxxxxxxxxxxxxxxxxxxxxxxxxxxxxxx
            x  Element    Atom        Fractional coordinates of atoms  x
            x            Number           u          v          w      x
            x----------------------------------------------------------x
            x   H          1         -0.009693   0.067261   0.006916   x
            x   H          2          0.816206   0.261793   0.043001   x
            xxxxxxxxxxxxxxxxxxxxxxxxxxxxxxxxxxxxxxxxxxxxxxxxxxxxxxxxxxxx


------------------------------------------------------------------------ <-- SCF
SCF loop      Energy           Fermi           Energy gain       Timer   <-- SCF
                               energy          per atom          (sec)   <-- SCF
------------------------------------------------------------------------ <-- SCF
Initial  -2.92148576E+001  1.93183955E+000                         7.36  <-- SCF
      1  -3.02712650E+001  1.84100850E+000   5.28203682E-001       7.57  <-- SCF
      2  -3.02758994E+001  1.84084885E+000   2.31719516E-003       7.81  <-- SCF
      3  -3.01637439E+001  1.98433937E+000  -5.60777295E-002       8.10  <-- SCF
      4  -3.01611045E+001  2.01686398E+000  -1.31969279E-003       8.41  <-- SCF
      5  -3.01611301E+001  2.01582999E+000   1.28151880E-005       8.61  <-- SCF
      6  -3.01611318E+001  2.01548917E+000   8.54225467E-007       8.83  <-- SCF
      7  -3.01611319E+001  2.01541943E+000   1.13251955E-008       9.03  <-- SCF
------------------------------------------------------------------------ <-- SCF
 
Final energy, E             =  -30.16113187262     eV
Final free energy (E-TS)    =  -30.16113187262     eV
(energies not corrected for finite basis set)
 
NB est. 0K energy (E-0.5TS) =  -30.16113187262     eV
 

 ******************************** Forces *********************************
 *                                                                       *
 *                      Cartesian components (eV/A)                      *
 * --------------------------------------------------------------------- *
 *              x                    y                    z              *
 *                                                                       *
 * H    1      4.19953             -2.42597             -0.58427         *
 * H    2     -4.19953              2.42597              0.58427         *
 *                                                                       *
 *************************************************************************

 ***************** Stress Tensor *****************
 *                                               *
 *          Cartesian components (GPa)           *
 * --------------------------------------------- *
 *             x             y             z     *
 *                                               *
 *  x    -94.053839     35.220256      9.764368  *
 *  y     35.220256    -47.939220     -3.458174  *
 *  z      9.764368     -3.458174     -2.928730  *
 *                                               *
 *  Pressure:   48.3073                          *
 *                                               *
 *************************************************
  
 +------------+-------------+-------------+-----------------+ <-- min BFGS
 |    Step    |   lambda    |   F.delta   |    enthalpy     | <-- min BFGS
 +------------+-------------+-------------+-----------------+ <-- min BFGS
 |  previous  |    0.000000 |    0.016435 |      -29.692711 | <-- min BFGS
 | trial step |    1.000000 |    0.011233 |      -30.076705 | <-- min BFGS
 |  line step |    2.302611 |   -0.008858 |      -30.161569 | <-- min BFGS
 +------------+-------------+-------------+-----------------+ <-- min BFGS
  
 BFGS: finished iteration   1  with enthalpy= -3.01615691E+001 eV
  
 +-----------+-----------------+-----------------+------------+-----+ <-- BFGS
 | Parameter |      value      |    tolerance    |    units   | OK? | <-- BFGS
 +-----------+-----------------+-----------------+------------+-----+ <-- BFGS
 |  dE/ion   |   2.344291E-001 |   2.000000E-005 |         eV | No  | <-- BFGS
 |  |F|max   |   4.884951E+000 |   5.000000E-002 |       eV/A | No  | <-- BFGS
 |  |dR|max  |   1.481405E-001 |   1.000000E-003 |          A | No  | <-- BFGS
 |   Smax    |   9.405384E+001 |   1.000000E-001 |        GPa | No  | <-- BFGS
 +-----------+-----------------+-----------------+------------+-----+ <-- BFGS
  

================================================================================
 Starting BFGS iteration          2 ...
================================================================================
  
 +------------+-------------+-------------+-----------------+ <-- min BFGS
 |    Step    |   lambda    |   F.delta   |    enthalpy     | <-- min BFGS
 +------------+-------------+-------------+-----------------+ <-- min BFGS
 |  previous  |    0.000000 |    0.104165 |      -30.161569 | <-- min BFGS
 +------------+-------------+-------------+-----------------+ <-- min BFGS
  
 Warning in geom_xvec_to_mdl - large cell change detected
                             - consider your initial cell

--------------------------------------------------------------------------------
 BFGS: starting iteration         2 with trial guess (lambda=  0.375473)
--------------------------------------------------------------------------------
 
+---------------- MEMORY AND SCRATCH DISK ESTIMATES PER NODE -----------------+
|                                                     Memory          Disk    |
| Model and support data                               13.9 MB         0.0 MB |
| Geometry minimisation requirements                    1.8 MB         0.8 MB |
|                                               ----------------------------- |
| Approx. total storage required per node              15.7 MB         0.8 MB |
|                                                                             |
| Requirements will fluctuate during execution and may exceed these estimates |
+-----------------------------------------------------------------------------+
 

                           -------------------------------
                                      Unit Cell
                           -------------------------------
        Real Lattice(A)              Reciprocal Lattice(1/A)
   2.2667402   0.0167063  -0.0052919        2.7639044   1.5841750   1.5747586
  -1.1172129   1.9623161  -0.0131974       -0.0215267   3.1954997   0.8672454
  -0.8624577  -0.5730939   2.0902452        0.0068615   0.0241865   3.0154185

                       Lattice parameters(A)       Cell Angles
                    a =    2.266808          alpha =   92.052221
                    b =    2.258102          beta  =  111.939032
                    c =    2.332680          gamma =  119.230517

                Current cell volume =    9.307253 A**3

                           -------------------------------
                                     Cell Contents
                           -------------------------------

            xxxxxxxxxxxxxxxxxxxxxxxxxxxxxxxxxxxxxxxxxxxxxxxxxxxxxxxxxxxx
            x  Element    Atom        Fractional coordinates of atoms  x
            x            Number           u          v          w      x
            x----------------------------------------------------------x
            x   H          1          0.024143   0.085611   0.006487   x
            x   H          2          0.782370   0.243443   0.043431   x
            xxxxxxxxxxxxxxxxxxxxxxxxxxxxxxxxxxxxxxxxxxxxxxxxxxxxxxxxxxxx


------------------------------------------------------------------------ <-- SCF
SCF loop      Energy           Fermi           Energy gain       Timer   <-- SCF
                               energy          per atom          (sec)   <-- SCF
------------------------------------------------------------------------ <-- SCF
Initial  -3.02421964E+001 -3.13973611E-001                         9.43  <-- SCF
      1  -3.06321561E+001 -4.15498610E-001   1.94979867E-001       9.70  <-- SCF
      2  -3.06341064E+001 -4.15985509E-001   9.75122059E-004       9.95  <-- SCF
      3  -3.06318727E+001 -4.40617304E-001  -1.11684016E-003      10.26  <-- SCF
      4  -3.06320370E+001 -4.46863592E-001   8.21702772E-005      10.57  <-- SCF
      5  -3.06320437E+001 -4.47356553E-001   3.31986607E-006      10.77  <-- SCF
      6  -3.06320445E+001 -4.47713627E-001   3.97579242E-007      10.99  <-- SCF
------------------------------------------------------------------------ <-- SCF
 
Final energy, E             =  -30.63204447068     eV
Final free energy (E-TS)    =  -30.63204447068     eV
(energies not corrected for finite basis set)
 
NB est. 0K energy (E-0.5TS) =  -30.63204447068     eV
 

 ******************************** Forces *********************************
 *                                                                       *
 *                      Cartesian components (eV/A)                      *
 * --------------------------------------------------------------------- *
 *              x                    y                    z              *
 *                                                                       *
 * H    1     -0.98654              0.34149              0.08478         *
 * H    2      0.98654             -0.34149             -0.08478         *
 *                                                                       *
 *************************************************************************

 ***************** Stress Tensor *****************
 *                                               *
 *          Cartesian components (GPa)           *
 * --------------------------------------------- *
 *             x             y             z     *
 *                                               *
 *  x     -2.570370     -5.245340      0.934448  *
 *  y     -5.245340    -11.330650      1.031048  *
 *  z      0.934448      1.031048     -5.766972  *
 *                                               *
 *  Pressure:    6.5560                          *
 *                                               *
 *************************************************
  
 +------------+-------------+-------------+-----------------+ <-- min BFGS
 |    Step    |   lambda    |   F.delta   |    enthalpy     | <-- min BFGS
 +------------+-------------+-------------+-----------------+ <-- min BFGS
 |  previous  |    0.000000 |    0.104165 |      -30.161569 | <-- min BFGS
 | trial step |    0.375473 |   -0.000651 |      -30.634073 | <-- min BFGS
 +------------+-------------+-------------+-----------------+ <-- min BFGS
  
 BFGS: finished iteration   2  with enthalpy= -3.06340733E+001 eV
  
 +-----------+-----------------+-----------------+------------+-----+ <-- BFGS
 | Parameter |      value      |    tolerance    |    units   | OK? | <-- BFGS
 +-----------+-----------------+-----------------+------------+-----+ <-- BFGS
 |  dE/ion   |   2.362521E-001 |   2.000000E-005 |         eV | No  | <-- BFGS
 |  |F|max   |   1.047413E+000 |   5.000000E-002 |       eV/A | No  | <-- BFGS
 |  |dR|max  |   6.750936E-002 |   1.000000E-003 |          A | No  | <-- BFGS
 |   Smax    |   1.133065E+001 |   1.000000E-001 |        GPa | No  | <-- BFGS
 +-----------+-----------------+-----------------+------------+-----+ <-- BFGS
  

================================================================================
 Starting BFGS iteration          3 ...
================================================================================
  
 +------------+-------------+-------------+-----------------+ <-- min BFGS
 |    Step    |   lambda    |   F.delta   |    enthalpy     | <-- min BFGS
 +------------+-------------+-------------+-----------------+ <-- min BFGS
 |  previous  |    0.000000 |    0.004390 |      -30.634073 | <-- min BFGS
 +------------+-------------+-------------+-----------------+ <-- min BFGS
  

--------------------------------------------------------------------------------
 BFGS: starting iteration         3 with trial guess (lambda=  1.000000)
--------------------------------------------------------------------------------
 
+---------------- MEMORY AND SCRATCH DISK ESTIMATES PER NODE -----------------+
|                                                     Memory          Disk    |
| Model and support data                               14.3 MB         0.0 MB |
| Geometry minimisation requirements                    2.0 MB         0.9 MB |
|                                               ----------------------------- |
| Approx. total storage required per node              16.3 MB         0.9 MB |
|                                                                             |
| Requirements will fluctuate during execution and may exceed these estimates |
+-----------------------------------------------------------------------------+
 

                           -------------------------------
                                      Unit Cell
                           -------------------------------
        Real Lattice(A)              Reciprocal Lattice(1/A)
   2.3966654   0.0169528  -0.0104004        2.6177692   1.5120184   1.5734475
  -1.1818697   2.0607431  -0.0139942       -0.0177811   3.0446692   0.8653978
  -0.9184715  -0.6049208   2.1093794        0.0127891   0.0276543   2.9921882

                       Lattice parameters(A)       Cell Angles
                    a =    2.396748          alpha =   91.932672
                    b =    2.375642          beta  =  113.062164
                    c =    2.378865          gamma =  119.427152

                Current cell volume =   10.413110 A**3

                           -------------------------------
                                     Cell Contents
                           -------------------------------

            xxxxxxxxxxxxxxxxxxxxxxxxxxxxxxxxxxxxxxxxxxxxxxxxxxxxxxxxxxxx
            x  Element    Atom        Fractional coordinates of atoms  x
            x            Number           u          v          w      x
            x----------------------------------------------------------x
            x   H          1          0.010452   0.089927   0.005700   x
            x   H          2          0.796061   0.239127   0.044218   x
            xxxxxxxxxxxxxxxxxxxxxxxxxxxxxxxxxxxxxxxxxxxxxxxxxxxxxxxxxxxx


------------------------------------------------------------------------ <-- SCF
SCF loop      Energy           Fermi           Energy gain       Timer   <-- SCF
                               energy          per atom          (sec)   <-- SCF
------------------------------------------------------------------------ <-- SCF
Initial  -3.04419170E+001 -5.85894076E-001                        11.53  <-- SCF
      1  -3.07584782E+001 -6.29117670E-001   1.58280601E-001      11.89  <-- SCF
      2  -3.07596957E+001 -6.29259304E-001   6.08781712E-004      12.24  <-- SCF
      3  -3.07257725E+001 -5.42635297E-001  -1.69616317E-002      12.68  <-- SCF
      4  -3.07249264E+001 -5.21083540E-001  -4.23041702E-004      13.15  <-- SCF
      5  -3.07249386E+001 -5.20428483E-001   6.08862223E-006      13.52  <-- SCF
      6  -3.07249401E+001 -5.20048048E-001   7.69480469E-007      13.83  <-- SCF
------------------------------------------------------------------------ <-- SCF
 
Final energy, E             =  -30.72494011015     eV
Final free energy (E-TS)    =  -30.72494011015     eV
(energies not corrected for finite basis set)
 
NB est. 0K energy (E-0.5TS) =  -30.72494011015     eV
 

 ******************************** Forces *********************************
 *                                                                       *
 *                      Cartesian components (eV/A)                      *
 * --------------------------------------------------------------------- *
 *              x                    y                    z              *
 *                                                                       *
 * H    1     -0.31020              0.10723              0.02070         *
 * H    2      0.31020             -0.10723             -0.02070         *
 *                                                                       *
 *************************************************************************

 ***************** Stress Tensor *****************
 *                                               *
 *          Cartesian components (GPa)           *
 * --------------------------------------------- *
 *             x             y             z     *
 *                                               *
 *  x     -6.282987     -1.235879      1.692049  *
 *  y     -1.235879     -7.077801      0.531131  *
 *  z      1.692049      0.531131     -4.602458  *
 *                                               *
 *  Pressure:    5.9877                          *
 *                                               *
 *************************************************
  
 +------------+-------------+-------------+-----------------+ <-- min BFGS
 |    Step    |   lambda    |   F.delta   |    enthalpy     | <-- min BFGS
 +------------+-------------+-------------+-----------------+ <-- min BFGS
 |  previous  |    0.000000 |    0.004390 |      -30.634073 | <-- min BFGS
 | trial step |    1.000000 |    0.002644 |      -30.725470 | <-- min BFGS
 +------------+-------------+-------------+-----------------+ <-- min BFGS
  

--------------------------------------------------------------------------------
 BFGS: improving iteration         3 with line minimization (lambda=  2.034893)
--------------------------------------------------------------------------------
 
+---------------- MEMORY AND SCRATCH DISK ESTIMATES PER NODE -----------------+
|                                                     Memory          Disk    |
| Model and support data                               14.5 MB         0.0 MB |
| Geometry minimisation requirements                    2.2 MB         1.0 MB |
|                                               ----------------------------- |
| Approx. total storage required per node              16.7 MB         1.0 MB |
|                                                                             |
| Requirements will fluctuate during execution and may exceed these estimates |
+-----------------------------------------------------------------------------+
 

                           -------------------------------
                                      Unit Cell
                           -------------------------------
        Real Lattice(A)              Reciprocal Lattice(1/A)
   2.5311240   0.0172080  -0.0156871        2.4822881   1.4441472   1.5710105
  -1.2487827   2.1626044  -0.0148188       -0.0143870   2.9029853   0.8630758
  -0.9764398  -0.6378581   2.1291813        0.0181885   0.0308444   2.9685681

                       Lattice parameters(A)       Cell Angles
                    a =    2.531231          alpha =   91.811267
                    b =    2.497306          beta  =  114.167959
                    c =    2.427697          gamma =  119.610878

                Current cell volume =   11.631212 A**3

                           -------------------------------
                                     Cell Contents
                           -------------------------------

            xxxxxxxxxxxxxxxxxxxxxxxxxxxxxxxxxxxxxxxxxxxxxxxxxxxxxxxxxxxx
            x  Element    Atom        Fractional coordinates of atoms  x
            x            Number           u          v          w      x
            x----------------------------------------------------------x
            x   H          1         -0.003717   0.094393   0.004886   x
            x   H          2          0.810230   0.234661   0.045032   x
            xxxxxxxxxxxxxxxxxxxxxxxxxxxxxxxxxxxxxxxxxxxxxxxxxxxxxxxxxxxx


------------------------------------------------------------------------ <-- SCF
SCF loop      Energy           Fermi           Energy gain       Timer   <-- SCF
                               energy          per atom          (sec)   <-- SCF
------------------------------------------------------------------------ <-- SCF
Initial  -3.04390305E+001 -6.05481114E-001                        14.24  <-- SCF
      1  -3.07961385E+001 -6.26436499E-001   1.78554024E-001      14.58  <-- SCF
      2  -3.07979854E+001 -6.26522238E-001   9.23414727E-004      14.92  <-- SCF
      3  -3.07536287E+001 -5.21728200E-001  -2.21783378E-002      15.38  <-- SCF
      4  -3.07526749E+001 -4.94369615E-001  -4.76895189E-004      15.84  <-- SCF
      5  -3.07527062E+001 -4.92231154E-001   1.56647766E-005      16.17  <-- SCF
      6  -3.07527092E+001 -4.91068930E-001   1.46958552E-006      16.48  <-- SCF
      7  -3.07527092E+001 -4.91121304E-001   2.28582830E-008      16.80  <-- SCF
------------------------------------------------------------------------ <-- SCF
 
Final energy, E             =  -30.75270920473     eV
Final free energy (E-TS)    =  -30.75270920473     eV
(energies not corrected for finite basis set)
 
NB est. 0K energy (E-0.5TS) =  -30.75270920473     eV
 

 ******************************** Forces *********************************
 *                                                                       *
 *                      Cartesian components (eV/A)                      *
 * --------------------------------------------------------------------- *
 *              x                    y                    z              *
 *                                                                       *
 * H    1      0.87407             -0.36112             -0.12421         *
 * H    2     -0.87407              0.36112              0.12421         *
 *                                                                       *
 *************************************************************************

 ***************** Stress Tensor *****************
 *                                               *
 *          Cartesian components (GPa)           *
 * --------------------------------------------- *
 *             x             y             z     *
 *                                               *
 *  x    -14.508981      3.986845      2.900099  *
 *  y      3.986845     -4.892213     -0.225222  *
 *  z      2.900099     -0.225222     -2.942399  *
 *                                               *
 *  Pressure:    7.4479                          *
 *                                               *
 *************************************************
  
 +------------+-------------+-------------+-----------------+ <-- min BFGS
 |    Step    |   lambda    |   F.delta   |    enthalpy     | <-- min BFGS
 +------------+-------------+-------------+-----------------+ <-- min BFGS
 |  previous  |    0.000000 |    0.004390 |      -30.634073 | <-- min BFGS
 | trial step |    1.000000 |    0.002644 |      -30.725470 | <-- min BFGS
 |  line step |    2.034893 |   -0.000085 |      -30.752815 | <-- min BFGS
 +------------+-------------+-------------+-----------------+ <-- min BFGS
  
 BFGS: finished iteration   3  with enthalpy= -3.07528148E+001 eV
  
 +-----------+-----------------+-----------------+------------+-----+ <-- BFGS
 | Parameter |      value      |    tolerance    |    units   | OK? | <-- BFGS
 +-----------+-----------------+-----------------+------------+-----+ <-- BFGS
 |  dE/ion   |   5.937074E-002 |   2.000000E-005 |         eV | No  | <-- BFGS
 |  |F|max   |   9.538512E-001 |   5.000000E-002 |       eV/A | No  | <-- BFGS
 |  |dR|max  |   8.233394E-002 |   1.000000E-003 |          A | No  | <-- BFGS
 |   Smax    |   1.450898E+001 |   1.000000E-001 |        GPa | No  | <-- BFGS
 +-----------+-----------------+-----------------+------------+-----+ <-- BFGS
  

================================================================================
 Starting BFGS iteration          4 ...
================================================================================
  
 +------------+-------------+-------------+-----------------+ <-- min BFGS
 |    Step    |   lambda    |   F.delta   |    enthalpy     | <-- min BFGS
 +------------+-------------+-------------+-----------------+ <-- min BFGS
 |  previous  |    0.000000 |    0.001865 |      -30.752815 | <-- min BFGS
 +------------+-------------+-------------+-----------------+ <-- min BFGS
  

--------------------------------------------------------------------------------
 BFGS: starting iteration         4 with trial guess (lambda=  1.000000)
--------------------------------------------------------------------------------
 
+---------------- MEMORY AND SCRATCH DISK ESTIMATES PER NODE -----------------+
|                                                     Memory          Disk    |
| Model and support data                               14.7 MB         0.0 MB |
| Geometry minimisation requirements                    2.4 MB         1.0 MB |
|                                               ----------------------------- |
| Approx. total storage required per node              17.1 MB         1.0 MB |
|                                                                             |
| Requirements will fluctuate during execution and may exceed these estimates |
+-----------------------------------------------------------------------------+
 

                           -------------------------------
                                      Unit Cell
                           -------------------------------
        Real Lattice(A)              Reciprocal Lattice(1/A)
   2.6426252   0.0218228  -0.0210176        2.3786171   1.3917913   1.5692005
  -1.3004692   2.2402701  -0.0157214       -0.0162871   2.8012409   0.8607124
  -1.0282001  -0.6664999   2.1497082        0.0231365   0.0340937   2.9444451

                       Lattice parameters(A)       Cell Angles
                    a =    2.642799          alpha =   91.696788
                    b =    2.590420          beta  =  115.127941
                    c =    2.474402          gamma =  119.657068

                Current cell volume =   12.693731 A**3

                           -------------------------------
                                     Cell Contents
                           -------------------------------

            xxxxxxxxxxxxxxxxxxxxxxxxxxxxxxxxxxxxxxxxxxxxxxxxxxxxxxxxxxxx
            x  Element    Atom        Fractional coordinates of atoms  x
            x            Number           u          v          w      x
            x----------------------------------------------------------x
            x   H          1          0.005248   0.108038   0.004470   x
            x   H          2          0.801265   0.221016   0.045448   x
            xxxxxxxxxxxxxxxxxxxxxxxxxxxxxxxxxxxxxxxxxxxxxxxxxxxxxxxxxxxx


------------------------------------------------------------------------ <-- SCF
SCF loop      Energy           Fermi           Energy gain       Timer   <-- SCF
                               energy          per atom          (sec)   <-- SCF
------------------------------------------------------------------------ <-- SCF
Initial  -3.06812999E+001 -8.06898229E-001                        17.23  <-- SCF
      1  -3.07850128E+001 -8.29510544E-001   5.18564872E-002      17.59  <-- SCF
      2  -3.07854365E+001 -8.29584218E-001   2.11856470E-004      17.96  <-- SCF
      3  -3.07818320E+001 -7.91170112E-001  -1.80229272E-003      18.42  <-- SCF
      4  -3.07818126E+001 -7.79770704E-001  -9.67633895E-006      18.86  <-- SCF
      5  -3.07818175E+001 -7.78743991E-001   2.46991452E-006      19.18  <-- SCF
------------------------------------------------------------------------ <-- SCF
 
Final energy, E             =  -30.78181754157     eV
Final free energy (E-TS)    =  -30.78181754157     eV
(energies not corrected for finite basis set)
 
NB est. 0K energy (E-0.5TS) =  -30.78181754157     eV
 

 ******************************** Forces *********************************
 *                                                                       *
 *                      Cartesian components (eV/A)                      *
 * --------------------------------------------------------------------- *
 *              x                    y                    z              *
 *                                                                       *
 * H    1      0.15216             -0.05396             -0.03817         *
 * H    2     -0.15216              0.05396              0.03817         *
 *                                                                       *
 *************************************************************************

 ***************** Stress Tensor *****************
 *                                               *
 *          Cartesian components (GPa)           *
 * --------------------------------------------- *
 *             x             y             z     *
 *                                               *
 *  x     -5.379608      0.599737      1.662178  *
 *  y      0.599737     -2.041146      0.093766  *
 *  z      1.662178      0.093766     -2.449010  *
 *                                               *
 *  Pressure:    3.2899                          *
 *                                               *
 *************************************************
  
 +------------+-------------+-------------+-----------------+ <-- min BFGS
 |    Step    |   lambda    |   F.delta   |    enthalpy     | <-- min BFGS
 +------------+-------------+-------------+-----------------+ <-- min BFGS
 |  previous  |    0.000000 |    0.001865 |      -30.752815 | <-- min BFGS
 | trial step |    1.000000 |    0.000903 |      -30.781911 | <-- min BFGS
 +------------+-------------+-------------+-----------------+ <-- min BFGS
  

--------------------------------------------------------------------------------
 BFGS: improving iteration         4 with line minimization (lambda=  1.939671)
--------------------------------------------------------------------------------
 
+---------------- MEMORY AND SCRATCH DISK ESTIMATES PER NODE -----------------+
|                                                     Memory          Disk    |
| Model and support data                               15.0 MB         0.0 MB |
| Geometry minimisation requirements                    2.5 MB         1.1 MB |
|                                               ----------------------------- |
| Approx. total storage required per node              17.5 MB         1.1 MB |
|                                                                             |
| Requirements will fluctuate during execution and may exceed these estimates |
+-----------------------------------------------------------------------------+
 

                           -------------------------------
                                      Unit Cell
                           -------------------------------
        Real Lattice(A)              Reciprocal Lattice(1/A)
   2.7473997   0.0261592  -0.0260265        2.2889823   1.3461074   1.5667483
  -1.3490375   2.3132503  -0.0165695       -0.0176920   2.7120016   0.8582253
  -1.0768378  -0.6934138   2.1689968        0.0273311   0.0368701   2.9221725

                       Lattice parameters(A)       Cell Angles
                    a =    2.747647          alpha =   91.590987
                    b =    2.677929          beta  =  115.991563
                    c =    2.518918          gamma =  119.698334

                Current cell volume =   13.741157 A**3

                           -------------------------------
                                     Cell Contents
                           -------------------------------

            xxxxxxxxxxxxxxxxxxxxxxxxxxxxxxxxxxxxxxxxxxxxxxxxxxxxxxxxxxxx
            x  Element    Atom        Fractional coordinates of atoms  x
            x            Number           u          v          w      x
            x----------------------------------------------------------x
            x   H          1          0.013673   0.120859   0.004078   x
            x   H          2          0.792840   0.208195   0.045839   x
            xxxxxxxxxxxxxxxxxxxxxxxxxxxxxxxxxxxxxxxxxxxxxxxxxxxxxxxxxxxx


------------------------------------------------------------------------ <-- SCF
SCF loop      Energy           Fermi           Energy gain       Timer   <-- SCF
                               energy          per atom          (sec)   <-- SCF
------------------------------------------------------------------------ <-- SCF
Initial  -3.06954673E+001 -1.04102758E+000                        19.58  <-- SCF
      1  -3.07832623E+001 -1.05700453E+000   4.38975267E-002      19.90  <-- SCF
      2  -3.07836390E+001 -1.05705965E+000   1.88339239E-004      20.26  <-- SCF
      3  -3.07817204E+001 -1.02717168E+000  -9.59288120E-004      20.71  <-- SCF
      4  -3.07817373E+001 -1.01700614E+000   8.46159159E-006      21.18  <-- SCF
      5  -3.07817417E+001 -1.01599108E+000   2.18985568E-006      21.52  <-- SCF
      6  -3.07817423E+001 -1.01558881E+000   2.73477057E-007      21.84  <-- SCF
------------------------------------------------------------------------ <-- SCF
 
Final energy, E             =  -30.78174226917     eV
Final free energy (E-TS)    =  -30.78174226917     eV
(energies not corrected for finite basis set)
 
NB est. 0K energy (E-0.5TS) =  -30.78174226917     eV
 

 ******************************** Forces *********************************
 *                                                                       *
 *                      Cartesian components (eV/A)                      *
 * --------------------------------------------------------------------- *
 *              x                    y                    z              *
 *                                                                       *
 * H    1     -0.59359              0.12110              0.05743         *
 * H    2      0.59359             -0.12110             -0.05743         *
 *                                                                       *
 *************************************************************************

 ***************** Stress Tensor *****************
 *                                               *
 *          Cartesian components (GPa)           *
 * --------------------------------------------- *
 *             x             y             z     *
 *                                               *
 *  x      3.025528     -1.336242      0.549767  *
 *  y     -1.336242     -0.690990      0.211619  *
 *  z      0.549767      0.211619     -1.991721  *
 *                                               *
 *  Pressure:   -0.1143                          *
 *                                               *
 *************************************************
  
 +------------+-------------+-------------+-----------------+ <-- min BFGS
 |    Step    |   lambda    |   F.delta   |    enthalpy     | <-- min BFGS
 +------------+-------------+-------------+-----------------+ <-- min BFGS
 |  previous  |    0.000000 |    0.001865 |      -30.752815 | <-- min BFGS
 | trial step |    1.000000 |    0.000903 |      -30.781911 | <-- min BFGS
 |  line step |    1.939671 |   -0.000250 |      -30.782127 | <-- min BFGS
 +------------+-------------+-------------+-----------------+ <-- min BFGS
  
 BFGS: finished iteration   4  with enthalpy= -3.07821267E+001 eV
  
 +-----------+-----------------+-----------------+------------+-----+ <-- BFGS
 | Parameter |      value      |    tolerance    |    units   | OK? | <-- BFGS
 +-----------+-----------------+-----------------+------------+-----+ <-- BFGS
 |  dE/ion   |   1.465596E-002 |   2.000000E-005 |         eV | No  | <-- BFGS
 |  |F|max   |   6.085288E-001 |   5.000000E-002 |       eV/A | No  | <-- BFGS
 |  |dR|max  |   6.362321E-002 |   1.000000E-003 |          A | No  | <-- BFGS
 |   Smax    |   3.025528E+000 |   1.000000E-001 |        GPa | No  | <-- BFGS
 +-----------+-----------------+-----------------+------------+-----+ <-- BFGS
  

================================================================================
 Starting BFGS iteration          5 ...
================================================================================

Writing model to xtal.check                                                                                                                                                                                                                                                      
  
 +------------+-------------+-------------+-----------------+ <-- min BFGS
 |    Step    |   lambda    |   F.delta   |    enthalpy     | <-- min BFGS
 +------------+-------------+-------------+-----------------+ <-- min BFGS
 |  previous  |    0.000000 |    0.001131 |      -30.782127 | <-- min BFGS
 +------------+-------------+-------------+-----------------+ <-- min BFGS
  
 Warning in geom_xvec_to_mdl - large cell change detected
                             - consider your initial cell

--------------------------------------------------------------------------------
 BFGS: starting iteration         5 with trial guess (lambda=  1.000000)
--------------------------------------------------------------------------------
 
+---------------- MEMORY AND SCRATCH DISK ESTIMATES PER NODE -----------------+
|                                                     Memory          Disk    |
| Model and support data                               15.4 MB         0.0 MB |
| Geometry minimisation requirements                    2.8 MB         1.2 MB |
|                                               ----------------------------- |
| Approx. total storage required per node              18.2 MB         1.2 MB |
|                                                                             |
| Requirements will fluctuate during execution and may exceed these estimates |
+-----------------------------------------------------------------------------+
 

                           -------------------------------
                                      Unit Cell
                           -------------------------------
        Real Lattice(A)              Reciprocal Lattice(1/A)
   2.8715189   0.0263484  -0.0332650        2.1942901   1.2989266   1.5627504
  -1.4110765   2.4032036  -0.0161726       -0.0140852   2.6119740   0.8530093
  -1.1350375  -0.7227931   2.1945006        0.0331580   0.0389388   2.8931255

                       Lattice parameters(A)       Cell Angles
                    a =    2.871832          alpha =   91.364903
                    b =    2.786895          beta  =  116.957444
                    c =    2.574213          gamma =  119.887031

                Current cell volume =   15.067750 A**3

                           -------------------------------
                                     Cell Contents
                           -------------------------------

            xxxxxxxxxxxxxxxxxxxxxxxxxxxxxxxxxxxxxxxxxxxxxxxxxxxxxxxxxxxx
            x  Element    Atom        Fractional coordinates of atoms  x
            x            Number           u          v          w      x
            x----------------------------------------------------------x
            x   H          1          0.002367   0.122034   0.003197   x
            x   H          2          0.804146   0.207020   0.046721   x
            xxxxxxxxxxxxxxxxxxxxxxxxxxxxxxxxxxxxxxxxxxxxxxxxxxxxxxxxxxxx


------------------------------------------------------------------------ <-- SCF
SCF loop      Energy           Fermi           Energy gain       Timer   <-- SCF
                               energy          per atom          (sec)   <-- SCF
------------------------------------------------------------------------ <-- SCF
Initial  -3.05811307E+001 -1.09597267E+000                        22.28  <-- SCF
      1  -3.08203098E+001 -1.11966838E+000   1.19589540E-001      22.68  <-- SCF
      2  -3.08221022E+001 -1.11974915E+000   8.96227018E-004      23.13  <-- SCF
      3  -3.07902634E+001 -1.01885582E+000  -1.59194481E-002      23.67  <-- SCF
      4  -3.07896687E+001 -9.89458493E-001  -2.97302541E-004      24.19  <-- SCF
      5  -3.07896991E+001 -9.85492690E-001   1.51672751E-005      24.62  <-- SCF
      6  -3.07897034E+001 -9.83167881E-001   2.17018819E-006      25.03  <-- SCF
      7  -3.07897035E+001 -9.83229417E-001   3.86786410E-008      25.44  <-- SCF
------------------------------------------------------------------------ <-- SCF
 
Final energy, E             =  -30.78970349997     eV
Final free energy (E-TS)    =  -30.78970349997     eV
(energies not corrected for finite basis set)
 
NB est. 0K energy (E-0.5TS) =  -30.78970349997     eV
 

 ******************************** Forces *********************************
 *                                                                       *
 *                      Cartesian components (eV/A)                      *
 * --------------------------------------------------------------------- *
 *              x                    y                    z              *
 *                                                                       *
 * H    1      0.26026             -0.05797             -0.04921         *
 * H    2     -0.26026              0.05797              0.04921         *
 *                                                                       *
 *************************************************************************

 ***************** Stress Tensor *****************
 *                                               *
 *          Cartesian components (GPa)           *
 * --------------------------------------------- *
 *             x             y             z     *
 *                                               *
 *  x     -3.977882      0.494304      1.350558  *
 *  y      0.494304      0.094396     -0.045082  *
 *  z      1.350558     -0.045082     -1.026719  *
 *                                               *
 *  Pressure:    1.6367                          *
 *                                               *
 *************************************************
  
 +------------+-------------+-------------+-----------------+ <-- min BFGS
 |    Step    |   lambda    |   F.delta   |    enthalpy     | <-- min BFGS
 +------------+-------------+-------------+-----------------+ <-- min BFGS
 |  previous  |    0.000000 |    0.001131 |      -30.782127 | <-- min BFGS
 | trial step |    1.000000 |    0.000008 |      -30.789330 | <-- min BFGS
 +------------+-------------+-------------+-----------------+ <-- min BFGS
  
 BFGS: finished iteration   5  with enthalpy= -3.07893301E+001 eV
  
 +-----------+-----------------+-----------------+------------+-----+ <-- BFGS
 | Parameter |      value      |    tolerance    |    units   | OK? | <-- BFGS
 +-----------+-----------------+-----------------+------------+-----+ <-- BFGS
 |  dE/ion   |   3.601692E-003 |   2.000000E-005 |         eV | No  | <-- BFGS
 |  |F|max   |   2.711376E-001 |   5.000000E-002 |       eV/A | No  | <-- BFGS
 |  |dR|max  |   3.331052E-002 |   1.000000E-003 |          A | No  | <-- BFGS
 |   Smax    |   3.977882E+000 |   1.000000E-001 |        GPa | No  | <-- BFGS
 +-----------+-----------------+-----------------+------------+-----+ <-- BFGS
  

================================================================================
[...]
   |            1s              1.000           -0.234        |                
   |                                                          |                
   |                 Pseudopotential Definition               |                
   |        Beta     l      e      Rc     scheme   norm       |                
   |          1      0   -0.234  0.8027     qc      0         |                
   |          2      0    0.250  0.8027     qc      0         |                
   |         loc     1    0.000  0.8027     pn      0         |                
   |                                                          |                
   | Augmentation charge Rinner = 0.599                       |                
   | No partial core correction                               |                
   ------------------------------------------------------------                
   | "1|0.8|0.8|0.6|2|6|8|10(qc=6)#[]"                        |                
   ------------------------------------------------------------                
   |      Author: Chris J. Pickard, Cambridge University      |                
   ============================================================                

 Doing a self consistent calculation for the test configuration

 Atomic calculation performed for H: 1s1

 Converged in 41 iterations to an ae energy of -12.134 eV

 ---------------------------------------
 AE eigenvalue nl 10 =       -0.23366400
 ---------------------------------------
 PS eigenvalue nl 10 =       -0.23362698
 ---------------------------------------

 Pseudo atomic calculation performed for H 1s1

 Converged in 15 iterations to a total energy of -12.0488 eV

Calculation parallelised over    1 nodes.
K-points are distributed over    1 groups, each containing    1 nodes.

 ************************************ Title ************************************
 

 ***************************** General Parameters ******************************
  
 output verbosity                               : normal  (1)
 write checkpoint data to                       : xtal.check
 type of calculation                            : geometry optimization
 stress calculation                             : off
 density difference calculation                 : off
 unlimited duration calculation
 timing information                             : on

 *********************** Exchange-Correlation Parameters ***********************
  
 using functional                               : Local Density Approximation
 Divergence correction                          : off

 ************************* Pseudopotential Parameters **************************
  
 pseudopotential representation                 : reciprocal space
 <beta|phi> representation                      : reciprocal space

 **************************** Basis Set Parameters *****************************
  
 basis set accuracy                             : FINE
 finite basis set correction                    : automatic

 **************************** Electronic Parameters ****************************
  
 number of  electrons                           :          2
 net charge of system                           :          0
 net spin   of system                           :          0
 number of  up  spins                           :          1
 number of down spins                           :          1
 treating system as non-spin-polarized
 number of bands                                :          5

 ********************* Electronic Minimization Parameters **********************
  
 Method: Treating system as metallic with density mixing treatment of electrons,
         and number of  SD  steps               :          1
         and number of  CG  steps               :          4
  
 total energy / atom convergence tol.           : 0.1000E-04   eV
 eigen-energy convergence tolerance             : 0.1000E-05   eV
 periodically dump wavefunctions to             : xtal.wvfn
 dump wavefunctions every                       :          5   SCF cycles

 ************************** Density Mixing Parameters **************************
  
 density-mixing scheme                          : Broyden
 max. length of mixing history                  :          7

 *********************** Population Analysis Parameters ************************
  
 Population analysis with cutoff                :  3.000       A

 ********************** Geometry Optimization Parameters ***********************
  
 optimization method                            : BFGS
 variable cell method                           : fixed basis quality
 max. number of steps                           :         30
 estimated bulk modulus                         :  500.0       GPa
 estimated <frequency>                          :  1668.       cm-1
 total energy convergence tolerance             : 0.2000E-04   eV/atom
        max ionic |force| tolerance             : 0.5000E-01   eV/A
 max ionic |displacement| tolerance             : 0.1000E-02   A
   max |stress component| tolerance             : 0.1000       GPa
 convergence tolerance window                   :          2   steps
 backup results every                           :          5   steps

 *******************************************************************************
  

                           -------------------------------
                                      Unit Cell
                           -------------------------------
        Real Lattice(A)                      Reciprocal Lattice(1/A)
   1.7380200   0.0000000   0.0000000        3.6151398   1.9626508   1.5598891
  -0.8680770   1.5989700   0.0000000        0.0000000   3.9295204   0.8414269
  -0.6528220  -0.4434390   2.0708900        0.0000000   0.0000000   3.0340507

                       Lattice parameters(A)       Cell Angles
                    a =    1.738020          alpha =   92.023131
                    b =    1.819413          beta  =  107.131901
                    c =    2.216168          gamma =  118.497430

                       Current cell volume =    5.755090       A**3

                           -------------------------------
                                     Cell Contents
                           -------------------------------
                         Total number of ions in cell =    2
                      Total number of species in cell =    1
                        Max number of any one species =    2

            xxxxxxxxxxxxxxxxxxxxxxxxxxxxxxxxxxxxxxxxxxxxxxxxxxxxxxxxxxxx
            x  Element    Atom        Fractional coordinates of atoms  x
            x            Number           u          v          w      x
            x----------------------------------------------------------x
            x  H            1         0.000000   0.000000   0.000000   x
            x  H            2         0.806513   0.329054   0.049917   x
            xxxxxxxxxxxxxxxxxxxxxxxxxxxxxxxxxxxxxxxxxxxxxxxxxxxxxxxxxxxx


                         No user defined ionic velocities

                           -------------------------------
                                   Details of Species
                           -------------------------------

                               Mass of species in AMU
                                    H    1.0079400

                          Electric Quadrupole Moment (Barn)
                                    H    0.0028600 Isotope  2

                          Files used for pseudopotentials:
                                    H NULL.NULL

                           -------------------------------
                              k-Points For BZ Sampling
                           -------------------------------
                       MP grid size for SCF calculation is  8  7  5
                         Number of kpoints used = 140

             +++++++++++++++++++++++++++++++++++++++++++++++++++++++
             +  Number       Fractional coordinates        Weight  +
             +-----------------------------------------------------+
             +     1  -0.062500   0.428571   0.400000   0.0071429  +
             +     2  -0.062500   0.428571   0.200000   0.0071429  +
             +     3  -0.062500   0.428571   0.000000   0.0071429  +
             +     4   0.062500  -0.428571   0.200000   0.0071429  +
             +     5   0.062500  -0.428571   0.400000   0.0071429  +
             +     6  -0.062500   0.285714   0.400000   0.0071429  +
             +     7  -0.062500   0.285714   0.200000   0.0071429  +
             +     8  -0.062500   0.285714   0.000000   0.0071429  +
             +     9   0.062500  -0.285714   0.200000   0.0071429  +
             +    10   0.062500  -0.285714   0.400000   0.0071429  +
             +    11  -0.062500   0.142857   0.400000   0.0071429  +
             +    12  -0.062500   0.142857   0.200000   0.0071429  +
             +    13  -0.062500   0.142857   0.000000   0.0071429  +
             +    14   0.062500  -0.142857   0.200000   0.0071429  +
             +    15   0.062500  -0.142857   0.400000   0.0071429  +
             +    16  -0.062500   0.000000   0.400000   0.0071429  +
             +    17  -0.062500   0.000000   0.200000   0.0071429  +
             +    18   0.062500  -0.000000  -0.000000   0.0071429  +
             +    19   0.062500  -0.000000   0.200000   0.0071429  +
             +    20   0.062500  -0.000000   0.400000   0.0071429  +
             +    21  -0.062500  -0.142857   0.400000   0.0071429  +
             +    22  -0.062500  -0.142857   0.200000   0.0071429  +
             +    23   0.062500   0.142857  -0.000000   0.0071429  +
             +    24   0.062500   0.142857   0.200000   0.0071429  +
             +    25   0.062500   0.142857   0.400000   0.0071429  +
             +    26  -0.062500  -0.285714   0.400000   0.0071429  +
             +    27  -0.062500  -0.285714   0.200000   0.0071429  +
             +    28   0.062500   0.285714  -0.000000   0.0071429  +
             +    29   0.062500   0.285714   0.200000   0.0071429  +
             +    30   0.062500   0.285714   0.400000   0.0071429  +
             +    31  -0.062500  -0.428571   0.400000   0.0071429  +
             +    32  -0.062500  -0.428571   0.200000   0.0071429  +
             +    33   0.062500   0.428571  -0.000000   0.0071429  +
             +    34   0.062500   0.428571   0.200000   0.0071429  +
             +    35   0.062500   0.428571   0.400000   0.0071429  +
             +    36  -0.187500   0.428571   0.400000   0.0071429  +
             +    37  -0.187500   0.428571   0.200000   0.0071429  +
             +    38  -0.187500   0.428571   0.000000   0.0071429  +
             +    39   0.187500  -0.428571   0.200000   0.0071429  +
             +    40   0.187500  -0.428571   0.400000   0.0071429  +
             +    41  -0.187500   0.285714   0.400000   0.0071429  +
             +    42  -0.187500   0.285714   0.200000   0.0071429  +
             +    43  -0.187500   0.285714   0.000000   0.0071429  +
             +    44   0.187500  -0.285714   0.200000   0.0071429  +
             +    45   0.187500  -0.285714   0.400000   0.0071429  +
             +    46  -0.187500   0.142857   0.400000   0.0071429  +
             +    47  -0.187500   0.142857   0.200000   0.0071429  +
             +    48  -0.187500   0.142857   0.000000   0.0071429  +
             +    49   0.187500  -0.142857   0.200000   0.0071429  +
             +    50   0.187500  -0.142857   0.400000   0.0071429  +
             +    51  -0.187500   0.000000   0.400000   0.0071429  +
             +    52  -0.187500   0.000000   0.200000   0.0071429  +
             +    53   0.187500  -0.000000  -0.000000   0.0071429  +
             +    54   0.187500  -0.000000   0.200000   0.0071429  +
             +    55   0.187500  -0.000000   0.400000   0.0071429  +
             +    56  -0.187500  -0.142857   0.400000   0.0071429  +
             +    57  -0.187500  -0.142857   0.200000   0.0071429  +
             +    58   0.187500   0.142857  -0.000000   0.0071429  +
             +    59   0.187500   0.142857   0.200000   0.0071429  +
             +    60   0.187500   0.142857   0.400000   0.0071429  +
             +    61  -0.187500  -0.285714   0.400000   0.0071429  +
             +    62  -0.187500  -0.285714   0.200000   0.0071429  +
             +    63   0.187500   0.285714  -0.000000   0.0071429  +
             +    64   0.187500   0.285714   0.200000   0.0071429  +
             +    65   0.187500   0.285714   0.400000   0.0071429  +
             +    66  -0.187500  -0.428571   0.400000   0.0071429  +
             +    67  -0.187500  -0.428571   0.200000   0.0071429  +
             +    68   0.187500   0.428571  -0.000000   0.0071429  +
             +    69   0.187500   0.428571   0.200000   0.0071429  +
             +    70   0.187500   0.428571   0.400000   0.0071429  +
             +    71  -0.312500   0.428571   0.400000   0.0071429  +
             +    72  -0.312500   0.428571   0.200000   0.0071429  +
             +    73  -0.312500   0.428571   0.000000   0.0071429  +
             +    74   0.312500  -0.428571   0.200000   0.0071429  +
             +    75   0.312500  -0.428571   0.400000   0.0071429  +
             +    76  -0.312500   0.285714   0.400000   0.0071429  +
             +    77  -0.312500   0.285714   0.200000   0.0071429  +
             +    78  -0.312500   0.285714   0.000000   0.0071429  +
             +    79   0.312500  -0.285714   0.200000   0.0071429  +
             +    80   0.312500  -0.285714   0.400000   0.0071429  +
             +    81  -0.312500   0.142857   0.400000   0.0071429  +
             +    82  -0.312500   0.142857   0.200000   0.0071429  +
             +    83  -0.312500   0.142857   0.000000   0.0071429  +
             +    84   0.312500  -0.142857   0.200000   0.0071429  +
             +    85   0.312500  -0.142857   0.400000   0.0071429  +
             +    86  -0.312500   0.000000   0.400000   0.0071429  +
             +    87  -0.312500   0.000000   0.200000   0.0071429  +
             +    88   0.312500  -0.000000  -0.000000   0.0071429  +
             +    89   0.312500  -0.000000   0.200000   0.0071429  +
             +    90   0.312500  -0.000000   0.400000   0.0071429  +
             +    91  -0.312500  -0.142857   0.400000   0.0071429  +
             +    92  -0.312500  -0.142857   0.200000   0.0071429  +
             +    93   0.312500   0.142857  -0.000000   0.0071429  +
             +    94   0.312500   0.142857   0.200000   0.0071429  +
             +    95   0.312500   0.142857   0.400000   0.0071429  +
             +    96  -0.312500  -0.285714   0.400000   0.0071429  +
             +    97  -0.312500  -0.285714   0.200000   0.0071429  +
             +    98   0.312500   0.285714  -0.000000   0.0071429  +
             +    99   0.312500   0.285714   0.200000   0.0071429  +
             +   100   0.312500   0.285714   0.400000   0.0071429  +
             +   101  -0.312500  -0.428571   0.400000   0.0071429  +
             +   102  -0.312500  -0.428571   0.200000   0.0071429  +
             +   103   0.312500   0.428571  -0.000000   0.0071429  +
             +   104   0.312500   0.428571   0.200000   0.0071429  +
             +   105   0.312500   0.428571   0.400000   0.0071429  +
             +   106  -0.437500   0.428571   0.400000   0.0071429  +
             +   107  -0.437500   0.428571   0.200000   0.0071429  +
             +   108  -0.437500   0.428571   0.000000   0.0071429  +
             +   109   0.437500  -0.428571   0.200000   0.0071429  +
             +   110   0.437500  -0.428571   0.400000   0.0071429  +
             +   111  -0.437500   0.285714   0.400000   0.0071429  +
             +   112  -0.437500   0.285714   0.200000   0.0071429  +
             +   113  -0.437500   0.285714   0.000000   0.0071429  +
             +   114   0.437500  -0.285714   0.200000   0.0071429  +
             +   115   0.437500  -0.285714   0.400000   0.0071429  +
             +   116  -0.437500   0.142857   0.400000   0.0071429  +
             +   117  -0.437500   0.142857   0.200000   0.0071429  +
             +   118  -0.437500   0.142857   0.000000   0.0071429  +
             +   119   0.437500  -0.142857   0.200000   0.0071429  +
             +   120   0.437500  -0.142857   0.400000   0.0071429  +
             +   121  -0.437500   0.000000   0.400000   0.0071429  +
             +   122  -0.437500   0.000000   0.200000   0.0071429  +
             +   123   0.437500  -0.000000  -0.000000   0.0071429  +
             +   124   0.437500  -0.000000   0.200000   0.0071429  +
             +   125   0.437500  -0.000000   0.400000   0.0071429  +
             +   126  -0.437500  -0.142857   0.400000   0.0071429  +
             +   127  -0.437500  -0.142857   0.200000   0.0071429  +
             +   128   0.437500   0.142857  -0.000000   0.0071429  +
             +   129   0.437500   0.142857   0.200000   0.0071429  +
             +   130   0.437500   0.142857   0.400000   0.0071429  +
             +   131  -0.437500  -0.285714   0.400000   0.0071429  +
             +   132  -0.437500  -0.285714   0.200000   0.0071429  +
             +   133   0.437500   0.285714  -0.000000   0.0071429  +
             +   134   0.437500   0.285714   0.200000   0.0071429  +
             +   135   0.437500   0.285714   0.400000   0.0071429  +
             +   136  -0.437500  -0.428571   0.400000   0.0071429  +
             +   137  -0.437500  -0.428571   0.200000   0.0071429  +
             +   138   0.437500   0.428571  -0.000000   0.0071429  +
             +   139   0.437500   0.428571   0.200000   0.0071429  +
             +   140   0.437500   0.428571   0.400000   0.0071429  +
             +++++++++++++++++++++++++++++++++++++++++++++++++++++++

                           -------------------------------
                               Symmetry and Constraints
                           -------------------------------

         There are no symmetry operations specified or generated for this cell

                          Centre of mass is constrained
                         Number of ionic constraints = 3
                Set iprint > 1 for details of ionic constraints

                         Number of cell constraints= 0
                         Cell constraints are:  1 2 3 4 5 6

                         External pressure/stress (GPa)
                          0.00000   0.00000   0.00000
                                    0.00000   0.00000
                                              0.00000
+---------------- MEMORY AND SCRATCH DISK ESTIMATES PER NODE -----------------+
|                                                     Memory          Disk    |
| Model and support data                               13.0 MB         0.0 MB |
| Electronic energy minimisation requirements           0.8 MB         0.5 MB |
|                                               ----------------------------- |
| Approx. total storage required per node              13.8 MB         0.5 MB |
|                                                                             |
| Requirements will fluctuate during execution and may exceed these estimates |
+-----------------------------------------------------------------------------+
Calculating finite basis set correction with  3 cut-off energies.
Calculating total energy with cut-off of  207.691eV.
------------------------------------------------------------------------ <-- SCF
SCF loop      Energy           Fermi           Energy gain       Timer   <-- SCF
                               energy          per atom          (sec)   <-- SCF
------------------------------------------------------------------------ <-- SCF
Initial   5.33081516E+001  2.42827996E+001                         3.10  <-- SCF
      1  -2.86246653E+001  3.42997001E+000   4.09664084E+001       3.34  <-- SCF
      2  -2.98877267E+001  2.49770695E+000   6.31530710E-001       3.54  <-- SCF
