********************************************************************************
*                       GENERAL UTILITY LATTICE PROGRAM                        *
*                                 Julian Gale                                  *
*                      Nanochemistry Research Institute                        *
*             Curtin University of Technology, Western Australia               *
********************************************************************************
* Version = 3.4.9 * Last modified =  23rd October 2009                         *
********************************************************************************
*  optimise     - perform optimisation run                                     *
*  conp         - constant pressure calculation                                *
*  conjugate    - use conjugate gradients minimiser                            *
********************************************************************************

  Job Started  at 17:11.19 16th December   2010                               

  Number of CPUs =     1


  Total number of configurations input =   1

********************************************************************************
*  Input for Configuration =   1                                               *
********************************************************************************

  Formula = Ti4O8                                                       

  Number of irreducible atoms/shells =      12


  Total number atoms/shells =      12

  Dimensionality = 3               :  Bulk   



  Cartesian lattice vectors (Angstroms) :

        5.162190    0.000000    0.000000
       -2.421745    4.613723    0.000000
       -0.016986   -0.172340    5.209823

  Cell parameters (Angstroms/Degrees):

  a =       5.1622    alpha =  91.5907
  b =       5.2107    beta  =  90.1867
  c =       5.2127    gamma = 117.6950

  Initial cell volume =         124.081903 Angs**3

  Temperature of configuration =  0.000     K 

  Pressure of configuration =         0.000 GPa 

  Fractional coordinates of asymmetric unit :

--------------------------------------------------------------------------------
   No.  Atomic       x           y          z         Charge      Occupancy
        Label      (Frac)      (Frac)     (Frac)        (e)         (Frac)  
--------------------------------------------------------------------------------
      1 Ti    c    0.528978    0.593810    0.572289      2.1960    1.000000    
      2 Ti    c    0.615909 *  0.951202 *  0.275948 *    2.1960    1.000000    
      3 Ti    c    0.745342 *  0.029111 *  0.572288 *    2.1960    1.000000    
      4 Ti    c    0.843782 *  0.958548 *  0.714549 *    2.1960    1.000000    
      5 O     c    0.344718 *  0.978152 *  0.244083 *   -1.0980    1.000000    
      6 O     c    0.561093 *  0.413463 *  0.244086 *   -1.0980    1.000000    
      7 O     c    0.140581 *  0.608672 *  0.275948 *   -1.0980    1.000000    
      8 O     c    0.918089 *  0.072731 *  0.461898 *   -1.0980    1.000000    
      9 O     c    0.091236 *  0.293732 *  0.275951 *   -1.0980    1.000000    
     10 O     c    0.319115 *  0.301070 *  0.714544 *   -1.0980    1.000000    
     11 O     c    0.701721 *  0.637422 *  0.461895 *   -1.0980    1.000000    
     12 O     c    0.935721 *  0.745408 *  0.714546 *   -1.0980    1.000000    
--------------------------------------------------------------------------------



********************************************************************************
*  General input information                                                   *
********************************************************************************

  Species output for all configurations : 

--------------------------------------------------------------------------------
  Species    Type    Atomic    Atomic    Charge       Radii (Angs)     Library
                     Number     Mass       (e)     Cova   Ionic  VDW   Symbol
--------------------------------------------------------------------------------
    Ti       Core       22      47.88     2.1960   1.470  0.000  2.190          
    O        Core        8      16.00    -1.0980   0.730  0.000  1.360          
--------------------------------------------------------------------------------


  Lattice summation method               =    Ewald
  Accuracy factor for lattice sums       =    8.000


  Time limit = Infinity

  Maximum range for interatomic potentials =    100000.000000 Angstroms

  General interatomic potentials :

--------------------------------------------------------------------------------
Atom  Types   Potential         A         B         C         D     Cutoffs(Ang)
  1     2                                                            Min    Max 
--------------------------------------------------------------------------------
Ti   c Ti   c Buckingham    0.311E+05 0.154     5.25     0.00       0.000 15.000
O    c O    c Buckingham    0.118E+05 0.234     30.2     0.00       0.000 15.000
O    c Ti   c Buckingham    0.170E+05 0.194     12.6     0.00       0.000 15.000
Ti   c Ti   c Lennard 12  6  1.00      0.00     0.00      0.00      0.000 15.000
O    c O    c Lennard 12  6  1.00      0.00     0.00      0.00      0.000 15.000
O    c Ti   c Lennard 12  6  1.00      0.00     0.00      0.00      0.000 15.000
--------------------------------------------------------------------------------

********************************************************************************
*  Output for configuration   1                                                *
********************************************************************************


  Components of energy : 

--------------------------------------------------------------------------------
  Interatomic potentials     =         302.49510041 eV
  Monopole - monopole (real) =         -19.08986754 eV
  Monopole - monopole (recip)=         -89.15958544 eV
  Monopole - monopole (total)=        -108.24945298 eV
--------------------------------------------------------------------------------
  Total lattice energy       =         194.24564743 eV
--------------------------------------------------------------------------------
  Total lattice energy       =           18741.7357 kJ/(mole unit cells)
--------------------------------------------------------------------------------


  Number of variables =     39

  Maximum number of calculations  =          1000
  Maximum Hessian update interval =            10
  Maximum step size               =   1.000000000
  Maximum parameter tolerance     =   0.000010000
  Maximum function  tolerance     =   0.000010000
  Maximum gradient  tolerance     =   0.001000000
  Maximum gradient  component     =   0.010000000

  Symmetry not applied to optimisation

  Cell parameters to be optimised using strains

  Conjugate gradient optimiser to be used

  Minimiser to switch to BFGS with exact hessian
  When gradient norm is less than     0.500000

  Start of bulk optimisation :

  Cycle:      0 Energy:       194.245647  Gnorm:    110.009550  CPU:    0.013
  Cycle:      1 Energy:        -6.394775  Gnorm:     34.839275  CPU:    0.040
  Cycle:      2 Energy:       -48.932002  Gnorm:     12.561080  CPU:    0.060
  Cycle:      3 Energy:       -85.938927  Gnorm:      8.638827  CPU:    0.083
  Cycle:      4 Energy:      -111.177884  Gnorm:      4.530026  CPU:    0.100
  Cycle:      5 Energy:      -122.660126  Gnorm:      3.581115  CPU:    0.113
  Cycle:      6 Energy:      -128.154496  Gnorm:      4.604819  CPU:    0.123
  Cycle:      7 Energy:      -132.034110  Gnorm:      3.680693  CPU:    0.133
  Cycle:      8 Energy:      -136.966477  Gnorm:      2.929898  CPU:    0.147
  Cycle:      9 Energy:      -139.676353  Gnorm:      2.509037  CPU:    0.160
  Cycle:     10 Energy:      -140.647927  Gnorm:      1.350048  CPU:    0.170
  Cycle:     11 Energy:      -142.391580  Gnorm:      1.114320  CPU:    0.180
  Cycle:     12 Energy:      -143.004270  Gnorm:      1.377061  CPU:    0.193
  Cycle:     13 Energy:      -143.754875  Gnorm:      1.536985  CPU:    0.203
  Cycle:     14 Energy:      -145.087047  Gnorm:      1.455695  CPU:    0.213
  Cycle:     15 Energy:      -146.290470  Gnorm:      1.478783  CPU:    0.230
  Cycle:     16 Energy:      -147.719046  Gnorm:      1.027616  CPU:    0.243
  Cycle:     17 Energy:      -148.946111  Gnorm:      1.161069  CPU:    0.257
  Cycle:     18 Energy:      -150.641821  Gnorm:      1.208104  CPU:    0.273
  Cycle:     19 Energy:      -151.445741  Gnorm:      1.013109  CPU:    0.283
  Cycle:     20 Energy:      -152.099554  Gnorm:      0.592929  CPU:    0.300
  Cycle:     21 Energy:      -152.545434  Gnorm:      0.604828  CPU:    0.313
  Cycle:     22 Energy:      -152.928086  Gnorm:      0.610297  CPU:    0.327
  Cycle:     23 Energy:      -153.576336  Gnorm:      0.639879  CPU:    0.340
  Cycle:     24 Energy:      -153.872342  Gnorm:      0.471122  CPU:    0.353
  ** Hessian calculated **
  Cycle:     25 Energy:      -154.454083  Gnorm:      0.435039  CPU:    0.377
  Cycle:     26 Energy:      -154.677912  Gnorm:      0.345233  CPU:    0.390
  Cycle:     27 Energy:      -155.019002  Gnorm:      0.436371  CPU:    0.403
  Cycle:     28 Energy:      -155.127328  Gnorm:      0.534974  CPU:    0.420
  Cycle:     29 Energy:      -155.409886  Gnorm:      0.495039  CPU:    0.433
  Cycle:     30 Energy:      -155.517908  Gnorm:      0.397060  CPU:    0.450
  Cycle:     31 Energy:      -155.602820  Gnorm:      0.243759  CPU:    0.457
  Cycle:     32 Energy:      -155.663416  Gnorm:      0.162942  CPU:    0.470
  Cycle:     33 Energy:      -155.707488  Gnorm:      0.094049  CPU:    0.483
  Cycle:     34 Energy:      -155.716947  Gnorm:      0.071523  CPU:    0.500
  ** Hessian calculated **
  Cycle:     35 Energy:      -155.731410  Gnorm:      0.016213  CPU:    0.527
  Cycle:     36 Energy:      -155.731772  Gnorm:      0.002257  CPU:    0.540
  Cycle:     37 Energy:      -155.731785  Gnorm:      0.000645  CPU:    0.557


  **** Optimisation achieved ****


  Final energy =    -155.73178587 eV
  Final Gnorm  =       0.00010498

  Components of energy : 

--------------------------------------------------------------------------------
  Interatomic potentials     =          12.71102496 eV
  Monopole - monopole (real) =         -70.99629776 eV
  Monopole - monopole (recip)=         -97.44651308 eV
  Monopole - monopole (total)=        -168.44281083 eV
--------------------------------------------------------------------------------
  Total lattice energy       =        -155.73178587 eV
--------------------------------------------------------------------------------
  Total lattice energy       =          -15025.7368 kJ/(mole unit cells)
--------------------------------------------------------------------------------

  Final fractional coordinates of atoms :

--------------------------------------------------------------------------------
   No.  Atomic        x           y          z          Radius
        Label       (Frac)      (Frac)     (Frac)       (Angs) 
--------------------------------------------------------------------------------
     1  Ti    c     0.528978    0.593810    0.572289    0.000000
     2  Ti    c     0.649310    0.875042    0.101229    0.000000
     3  Ti    c     0.313403    0.188674    0.298936    0.000000
     4  Ti    c     0.984434    0.094383    0.735838    0.000000
     5  O     c     0.358248    0.067570    0.016998    0.000000
     6  O     c     0.422325    0.558834    0.195161    0.000000
     7  O     c     0.299863    0.848131    0.476457    0.000000
     8  O     c     0.687536    0.295686    0.573763    0.000000
     9  O     c     0.942532    0.150872    0.052040    0.000000
    10  O     c     0.214501    0.308067    0.549208    0.000000
    11  O     c     0.787409    0.888914    0.455794    0.000000
    12  O     c     0.741541    0.748410    0.872166    0.000000
--------------------------------------------------------------------------------

  Final Cartesian lattice vectors (Angstroms) :

        5.114328    0.630972   -1.109994
       -1.835359    4.951337    0.805151
       -1.158129    0.123081    5.675745


  Final cell parameters and derivatives :

--------------------------------------------------------------------------------
       a            5.271296 Angstrom     dE/de1(xx)     0.001728 eV/strain
       b            5.341586 Angstrom     dE/de2(yy)     0.000613 eV/strain
       c            5.794005 Angstrom     dE/de3(zz)    -0.000584 eV/strain
       alpha       76.347854 Degrees      dE/de4(yz)    -0.000942 eV/strain
       beta       113.432254 Degrees      dE/de5(xz)    -0.000180 eV/strain
       gamma      104.723352 Degrees      dE/de6(xy)    -0.000546 eV/strain
--------------------------------------------------------------------------------

  Primitive cell volume =           143.088928 Angs**3

  Density of cell =      3.708071 g/cm**3

  Non-primitive cell volume =           143.088928 Angs**3


  Final internal derivatives :

--------------------------------------------------------------------------------
   No.  Atomic          x             y             z           Radius
        Label          (eV)          (eV)          (eV)        (eV/Angs)
--------------------------------------------------------------------------------
      1 Ti    c       0.000000      0.000000      0.000000      0.000000
      2 Ti    c       0.000862     -0.000140     -0.000729      0.000000
      3 Ti    c      -0.000777      0.001140      0.000728      0.000000
      4 Ti    c       0.000061     -0.000542      0.000788      0.000000
      5 O     c       0.000889      0.000089     -0.000994      0.000000
      6 O     c      -0.000090     -0.000118      0.000690      0.000000
      7 O     c      -0.000366      0.000392      0.000380      0.000000
      8 O     c       0.000680     -0.000908     -0.001162      0.000000
      9 O     c      -0.000538      0.000604      0.000535      0.000000
     10 O     c      -0.000410      0.000066     -0.000561      0.000000
     11 O     c      -0.000318      0.000011     -0.000441      0.000000
     12 O     c      -0.000291     -0.000171     -0.000059      0.000000
--------------------------------------------------------------------------------
  Maximum abs         0.000889      0.001140      0.001162      0.000000
--------------------------------------------------------------------------------


  Time to end of optimisation =       0.5666 seconds


  Peak dynamic memory used =       0.50 MB 


  Timing analysis for GULP :

--------------------------------------------------------------------------------
  Task / Subroutine                                          Time (Seconds)
--------------------------------------------------------------------------------
  Calculation of reciprocal space energy and derivatives          0.0100
  Calculation of real space energy and derivatives                0.5433
--------------------------------------------------------------------------------
  Total CPU time                                                  0.5666
--------------------------------------------------------------------------------


  Job Finished at 17:11.20 16th December   2010                               

