********************************************************************************
*                       GENERAL UTILITY LATTICE PROGRAM                        *
*                                 Julian Gale                                  *
*                      Nanochemistry Research Institute                        *
*             Curtin University of Technology, Western Australia               *
********************************************************************************
* Version = 3.4.9 * Last modified =  23rd October 2009                         *
********************************************************************************
*  optimise     - perform optimisation run                                     *
*  conp         - constant pressure calculation                                *
*  conjugate    - use conjugate gradients minimiser                            *
********************************************************************************

  Job Started  at 17:17.09 16th December   2010                               

  Number of CPUs =     1


  Total number of configurations input =   1

********************************************************************************
*  Input for Configuration =   1                                               *
********************************************************************************

  Formula = Ti4O8                                                       

  Number of irreducible atoms/shells =      12


  Total number atoms/shells =      12

  Dimensionality = 3               :  Bulk   



  Cartesian lattice vectors (Angstroms) :

        3.465290    0.000000    0.000000
        1.661266    3.643259    0.000000
        0.125928    1.196188    8.886661

  Cell parameters (Angstroms/Degrees):

  a =       3.4653    alpha =  82.6926
  b =       4.0041    beta  =  89.1954
  c =       8.9677    gamma =  65.4878

  Initial cell volume =         112.193630 Angs**3

  Temperature of configuration =  0.000     K 

  Pressure of configuration =         0.000 GPa 

  Fractional coordinates of asymmetric unit :

--------------------------------------------------------------------------------
   No.  Atomic       x           y          z         Charge      Occupancy
        Label      (Frac)      (Frac)     (Frac)        (e)         (Frac)  
--------------------------------------------------------------------------------
      1 Ti    c    0.801740    0.523520    0.776308      2.1960    1.000000    
      2 Ti    c    0.302922 *  0.740067 *  0.276309 *    2.1960    1.000000    
      3 Ti    c    0.753093 *  0.401096 *  0.276309 *    2.1960    1.000000    
      4 Ti    c    0.096409 *  0.184549 *  0.776308 *    2.1960    1.000000    
      5 O     c    0.095637 *  0.681538 *  0.938761 *   -1.0980    1.000000    
      6 O     c    0.495880 *  0.756210 *  0.113855 *   -1.0980    1.000000    
      7 O     c    0.986861 *  0.525671 *  0.113855 *   -1.0980    1.000000    
      8 O     c    0.800924 *  0.020390 *  0.938762 *   -1.0980    1.000000    
      9 O     c    0.005330 *  0.032763 *  0.438762 *   -1.0980    1.000000    
     10 O     c    0.453737 *  0.102260 *  0.438762 *   -1.0980    1.000000    
     11 O     c    0.941260 *  0.860141 *  0.613854 *   -1.0980    1.000000    
     12 O     c    0.462525 *  0.123218 *  0.613854 *   -1.0980    1.000000    
--------------------------------------------------------------------------------



********************************************************************************
*  General input information                                                   *
********************************************************************************

  Species output for all configurations : 

--------------------------------------------------------------------------------
  Species    Type    Atomic    Atomic    Charge       Radii (Angs)     Library
                     Number     Mass       (e)     Cova   Ionic  VDW   Symbol
--------------------------------------------------------------------------------
    Ti       Core       22      47.88     2.1960   1.470  0.000  2.190          
    O        Core        8      16.00    -1.0980   0.730  0.000  1.360          
--------------------------------------------------------------------------------


  Lattice summation method               =    Ewald
  Accuracy factor for lattice sums       =    8.000


  Time limit = Infinity

  Maximum range for interatomic potentials =    100000.000000 Angstroms

  General interatomic potentials :

--------------------------------------------------------------------------------
Atom  Types   Potential         A         B         C         D     Cutoffs(Ang)
  1     2                                                            Min    Max 
--------------------------------------------------------------------------------
Ti   c Ti   c Buckingham    0.311E+05 0.154     5.25     0.00       0.000 15.000
O    c O    c Buckingham    0.118E+05 0.234     30.2     0.00       0.000 15.000
O    c Ti   c Buckingham    0.170E+05 0.194     12.6     0.00       0.000 15.000
Ti   c Ti   c Lennard 12  6  1.00      0.00     0.00      0.00      0.000 15.000
O    c O    c Lennard 12  6  1.00      0.00     0.00      0.00      0.000 15.000
O    c Ti   c Lennard 12  6  1.00      0.00     0.00      0.00      0.000 15.000
--------------------------------------------------------------------------------

********************************************************************************
*  Output for configuration   1                                                *
********************************************************************************


  Components of energy : 

--------------------------------------------------------------------------------
  Interatomic potentials     =         116.94825795 eV
  Monopole - monopole (real) =          10.03086468 eV
  Monopole - monopole (recip)=         -93.42744401 eV
  Monopole - monopole (total)=         -83.39657933 eV
--------------------------------------------------------------------------------
  Total lattice energy       =          33.55167862 eV
--------------------------------------------------------------------------------
  Total lattice energy       =            3237.2241 kJ/(mole unit cells)
--------------------------------------------------------------------------------


  Number of variables =     39

  Maximum number of calculations  =          1000
  Maximum Hessian update interval =            10
  Maximum step size               =   1.000000000
  Maximum parameter tolerance     =   0.000010000
  Maximum function  tolerance     =   0.000010000
  Maximum gradient  tolerance     =   0.001000000
  Maximum gradient  component     =   0.010000000

  Symmetry not applied to optimisation

  Cell parameters to be optimised using strains

  Conjugate gradient optimiser to be used

  Minimiser to switch to BFGS with exact hessian
  When gradient norm is less than     0.500000

  Start of bulk optimisation :

  Cycle:      0 Energy:        33.551679  Gnorm:     40.041994  CPU:    0.013
  Cycle:      1 Energy:       -79.257824  Gnorm:     14.413533  CPU:    0.037
  Cycle:      2 Energy:      -101.847813  Gnorm:      7.531824  CPU:    0.053
  Cycle:      3 Energy:      -116.172660  Gnorm:      5.818213  CPU:    0.073
  Cycle:      4 Energy:      -127.447019  Gnorm:      3.757824  CPU:    0.090
  Cycle:      5 Energy:      -134.850935  Gnorm:      2.239820  CPU:    0.103
  Cycle:      6 Energy:      -138.892097  Gnorm:      2.092198  CPU:    0.120
  Cycle:      7 Energy:      -141.391434  Gnorm:      1.456530  CPU:    0.133
  Cycle:      8 Energy:      -142.330227  Gnorm:      1.361127  CPU:    0.147
  Cycle:      9 Energy:      -143.161443  Gnorm:      0.995622  CPU:    0.160
  Cycle:     10 Energy:      -143.646213  Gnorm:      0.628673  CPU:    0.177
  Cycle:     11 Energy:      -144.044544  Gnorm:      0.689602  CPU:    0.190
  Cycle:     12 Energy:      -144.619735  Gnorm:      1.009589  CPU:    0.207
  Cycle:     13 Energy:      -145.137898  Gnorm:      0.758933  CPU:    0.217
  Cycle:     14 Energy:      -145.729559  Gnorm:      0.830782  CPU:    0.233
  Cycle:     15 Energy:      -146.223804  Gnorm:      0.549857  CPU:    0.243
  Cycle:     16 Energy:      -146.424162  Gnorm:      0.657001  CPU:    0.260
  Cycle:     17 Energy:      -147.136719  Gnorm:      0.921509  CPU:    0.277
  Cycle:     18 Energy:      -148.223641  Gnorm:      1.248429  CPU:    0.293
  Cycle:     19 Energy:      -148.969814  Gnorm:      0.990031  CPU:    0.307
  Cycle:     20 Energy:      -149.416005  Gnorm:      0.963391  CPU:    0.317
  Cycle:     21 Energy:      -150.183533  Gnorm:      0.943279  CPU:    0.333
  Cycle:     22 Energy:      -150.615830  Gnorm:      0.807167  CPU:    0.347
  Cycle:     23 Energy:      -150.981372  Gnorm:      0.865497  CPU:    0.363
  Cycle:     24 Energy:      -151.621899  Gnorm:      0.842251  CPU:    0.377
  Cycle:     25 Energy:      -152.079960  Gnorm:      0.864970  CPU:    0.390
  Cycle:     26 Energy:      -152.512680  Gnorm:      1.139610  CPU:    0.403
  Cycle:     27 Energy:      -152.836466  Gnorm:      0.583605  CPU:    0.417
  Cycle:     28 Energy:      -153.011537  Gnorm:      0.440522  CPU:    0.433
  ** Hessian calculated **
  Cycle:     29 Energy:      -153.263472  Gnorm:      0.459261  CPU:    0.463
  ** Hessian calculated **
  Cycle:     30 Energy:      -153.489969  Gnorm:      0.243866  CPU:    0.487
  Cycle:     31 Energy:      -153.618828  Gnorm:      0.257947  CPU:    0.503
  Cycle:     32 Energy:      -153.699892  Gnorm:      0.350557  CPU:    0.517
  Cycle:     33 Energy:      -153.791433  Gnorm:      0.234266  CPU:    0.527
  Cycle:     34 Energy:      -153.861957  Gnorm:      0.171804  CPU:    0.543
  Cycle:     35 Energy:      -153.898278  Gnorm:      0.135363  CPU:    0.560
  Cycle:     36 Energy:      -153.922769  Gnorm:      0.129410  CPU:    0.573
  Cycle:     37 Energy:      -153.952885  Gnorm:      0.176559  CPU:    0.590
  Cycle:     38 Energy:      -153.993296  Gnorm:      0.203804  CPU:    0.607
  Cycle:     39 Energy:      -154.053543  Gnorm:      0.324908  CPU:    0.620
  ** Hessian calculated **
  Cycle:     40 Energy:      -154.133040  Gnorm:      0.171015  CPU:    0.643
  Cycle:     41 Energy:      -154.262555  Gnorm:      0.347425  CPU:    0.663
  Cycle:     42 Energy:      -154.400423  Gnorm:      0.290202  CPU:    0.680
  Cycle:     43 Energy:      -154.477526  Gnorm:      0.202505  CPU:    0.693
  Cycle:     44 Energy:      -154.542561  Gnorm:      0.168281  CPU:    0.707
  Cycle:     45 Energy:      -154.573891  Gnorm:      0.106016  CPU:    0.720
  Cycle:     46 Energy:      -154.592610  Gnorm:      0.087496  CPU:    0.737
  Cycle:     47 Energy:      -154.600124  Gnorm:      0.057365  CPU:    0.753
  Cycle:     48 Energy:      -154.603031  Gnorm:      0.051224  CPU:    0.763
  Cycle:     49 Energy:      -154.605673  Gnorm:      0.051854  CPU:    0.780
  ** Hessian calculated **
  Cycle:     50 Energy:      -154.607094  Gnorm:      0.034972  CPU:    0.803
  Cycle:     51 Energy:      -154.609091  Gnorm:      0.042814  CPU:    0.820
  Cycle:     52 Energy:      -154.611674  Gnorm:      0.047320  CPU:    0.837
  Cycle:     53 Energy:      -154.615920  Gnorm:      0.063650  CPU:    0.857
  Cycle:     54 Energy:      -154.622469  Gnorm:      0.077981  CPU:    0.870
  Cycle:     55 Energy:      -154.639606  Gnorm:      0.101769  CPU:    0.893
  Cycle:     56 Energy:      -154.666024  Gnorm:      0.110853  CPU:    0.913
  Cycle:     57 Energy:      -154.705722  Gnorm:      0.165291  CPU:    0.933
  Cycle:     58 Energy:      -154.756038  Gnorm:      0.231579  CPU:    0.953
  Cycle:     59 Energy:      -154.789161  Gnorm:      0.248323  CPU:    0.967
  ** Hessian calculated **
  Cycle:     60 Energy:      -154.861632  Gnorm:      0.253488  CPU:    0.997
  Cycle:     61 Energy:      -154.967139  Gnorm:      0.356943  CPU:    1.013
  Cycle:     62 Energy:      -155.172251  Gnorm:      0.485357  CPU:    1.030
  Cycle:     63 Energy:      -155.508960  Gnorm:      0.550504  CPU:    1.053
  Cycle:     64 Energy:      -155.782188  Gnorm:      0.521583  CPU:    1.067
  Cycle:     65 Energy:      -155.897960  Gnorm:      0.431531  CPU:    1.083
  Cycle:     66 Energy:      -156.054960  Gnorm:      0.401386  CPU:    1.100
  Cycle:     67 Energy:      -156.183104  Gnorm:      0.277855  CPU:    1.120
  Cycle:     68 Energy:      -156.270926  Gnorm:      0.307259  CPU:    1.133
  Cycle:     69 Energy:      -156.419533  Gnorm:      0.260291  CPU:    1.153
  ** Hessian calculated **
  Cycle:     70 Energy:      -156.818452  Gnorm:      0.166368  CPU:    1.190
  Cycle:     71 Energy:      -156.991400  Gnorm:      0.219045  CPU:    1.207
  Cycle:     72 Energy:      -157.056486  Gnorm:      0.080847  CPU:    1.220
  Cycle:     73 Energy:      -157.067631  Gnorm:      0.049648  CPU:    1.237
  Cycle:     74 Energy:      -157.071314  Gnorm:      0.031295  CPU:    1.253
  Cycle:     75 Energy:      -157.073263  Gnorm:      0.020181  CPU:    1.270
  Cycle:     76 Energy:      -157.073885  Gnorm:      0.007225  CPU:    1.287
  Cycle:     77 Energy:      -157.073957  Gnorm:      0.003563  CPU:    1.300
  Cycle:     78 Energy:      -157.073968  Gnorm:      0.000885  CPU:    1.317


  **** Optimisation achieved ****


  Final energy =    -157.07396971 eV
  Final Gnorm  =       0.00041504

  Components of energy : 

--------------------------------------------------------------------------------
  Interatomic potentials     =          11.72602011 eV
  Monopole - monopole (real) =         -64.74318374 eV
  Monopole - monopole (recip)=        -104.05680608 eV
  Monopole - monopole (total)=        -168.79998982 eV
--------------------------------------------------------------------------------
  Total lattice energy       =        -157.07396971 eV
--------------------------------------------------------------------------------
  Total lattice energy       =          -15155.2370 kJ/(mole unit cells)
--------------------------------------------------------------------------------

  Final fractional coordinates of atoms :

--------------------------------------------------------------------------------
   No.  Atomic        x           y          z          Radius
        Label       (Frac)      (Frac)     (Frac)       (Angs) 
--------------------------------------------------------------------------------
     1  Ti    c     0.801740    0.523520    0.776308    0.000000
     2  Ti    c     0.301720    0.517279    0.457089    0.000000
     3  Ti    c     0.801725    0.198067    0.276298    0.000000
     4  Ti    c     0.301732    0.842745    0.957089    0.000000
     5  O     c     0.801726    0.528459    0.007503    0.000000
     6  O     c     0.301719    0.512348    0.225878    0.000000
     7  O     c     0.801719    0.283808    0.471192    0.000000
     8  O     c     0.801714    0.048003    0.971199    0.000000
     9  O     c     0.801735    0.730717    0.507516    0.000000
    10  O     c     0.301735    0.992809    0.262185    0.000000
    11  O     c     0.301733    0.757004    0.762193    0.000000
    12  O     c     0.301728    0.310078    0.725881    0.000000
--------------------------------------------------------------------------------

  Final Cartesian lattice vectors (Angstroms) :

        3.189325   -0.610161    0.157504
        0.887469    4.869988    0.895789
        0.309194    3.673661    7.972644


  Final cell parameters and derivatives :

--------------------------------------------------------------------------------
       a            3.250984 Angstrom     dE/de1(xx)    -0.003861 eV/strain
       b            5.030589 Angstrom     dE/de2(yy)    -0.006405 eV/strain
       c            8.783760 Angstrom     dE/de3(zz)    -0.005341 eV/strain
       alpha       55.060147 Degrees      dE/de4(yz)     0.000297 eV/strain
       beta        89.999357 Degrees      dE/de5(xz)     0.000860 eV/strain
       gamma       89.999861 Degrees      dE/de6(xy)    -0.001452 eV/strain
--------------------------------------------------------------------------------

  Primitive cell volume =           117.759925 Angs**3

  Density of cell =      4.505640 g/cm**3

  Non-primitive cell volume =           117.759925 Angs**3


  Final internal derivatives :

--------------------------------------------------------------------------------
   No.  Atomic          x             y             z           Radius
        Label          (eV)          (eV)          (eV)        (eV/Angs)
--------------------------------------------------------------------------------
      1 Ti    c       0.000000      0.000000      0.000000      0.000000
      2 Ti    c      -0.000385      0.001205     -0.002126      0.000000
      3 Ti    c      -0.000804      0.000308      0.003271      0.000000
      4 Ti    c       0.001743      0.001843      0.000214      0.000000
      5 O     c      -0.000461     -0.000107     -0.006370      0.000000
      6 O     c      -0.000358     -0.002461     -0.001757      0.000000
      7 O     c       0.000132      0.000804     -0.002811      0.000000
      8 O     c      -0.002587      0.000837     -0.002979      0.000000
      9 O     c       0.000380     -0.003007      0.006409      0.000000
     10 O     c       0.000755      0.001362     -0.003084      0.000000
     11 O     c      -0.000481     -0.001185      0.002608      0.000000
     12 O     c       0.000627      0.002133     -0.000283      0.000000
--------------------------------------------------------------------------------
  Maximum abs         0.002587      0.003007      0.006409      0.000000
--------------------------------------------------------------------------------


  Time to end of optimisation =       1.3332 seconds


  Peak dynamic memory used =       0.50 MB 


  Timing analysis for GULP :

--------------------------------------------------------------------------------
  Task / Subroutine                                          Time (Seconds)
--------------------------------------------------------------------------------
  Calculation of reciprocal space energy and derivatives          0.0400
  Calculation of real space energy and derivatives                1.2866
--------------------------------------------------------------------------------
  Total CPU time                                                  1.3332
--------------------------------------------------------------------------------


  Job Finished at 17:17.10 16th December   2010                               

