
     Program PWSCF v.6.1 (svn rev. 13369) starts on 25Jun2017 at 21:13:11

     This program is part of the open-source Quantum ESPRESSO suite
     for quantum simulation of materials; please cite
         "P. Giannozzi et al., J. Phys.:Condens. Matter 21 395502 (2009);
          URL http://www.quantum-espresso.org",
     in publications or presentations arising from this work. More details at
     http://www.quantum-espresso.org/quote

     Parallel version (MPI), running on     1 processors
     Waiting for input...
     Reading input from standard input
     Message from routine read_cards :
     DEPRECATED: no units specified in CELL_PARAMETERS card

     Current dimensions of program PWSCF are:
     Max number of different atomic species (ntypx) = 10
     Max number of k-points (npk) =  40000
     Max angular momentum in pseudopotentials (lmaxx) =  3

     Subspace diagonalization in iterative solution of the eigenvalue problem:
     a serial algorithm will be used


     G-vector sticks info
     --------------------
     sticks:   dense  smooth     PW     G-vecs:    dense   smooth      PW
     Sum         103     103     37                 1361     1361     267



     bravais-lattice index     =            0
     lattice parameter (alat)  =       1.0000  a.u.
     unit-cell volume          =     112.3183 (a.u.)^3
     number of atoms/cell      =            2
     number of atomic types    =            1
     number of electrons       =        12.00
     number of Kohn-Sham states=            6
     kinetic-energy cutoff     =      20.0000  Ry
     charge density cutoff     =      80.0000  Ry
     convergence threshold     =      1.0E-06
     mixing beta               =       0.3000
     number of iterations used =            8  plain     mixing
     Exchange-correlation      =  SLA  PW   PBE  PBE ( 1  4  3  4 0 0)
     nstep                     =          100


     celldm(1)=   1.000000  celldm(2)=   0.000000  celldm(3)=   0.000000
     celldm(4)=   0.000000  celldm(5)=   0.000000  celldm(6)=   0.000000

     crystal axes: (cart. coord. in units of alat)
               a(1) = (   3.166500   0.000000   0.000000 )
               a(2) = (   1.181210   5.273480   0.000000 )
               a(3) = (   0.673875   0.335461   6.726260 )

     reciprocal axes: (cart. coord. in units 2 pi/alat)
               b(1) = (  0.315806 -0.070738 -0.028111 )
               b(2) = (  0.000000  0.189628 -0.009457 )
               b(3) = (  0.000000  0.000000  0.148671 )


     PseudoPot. # 1 for O  read from file:
     /home/patrick/src/quantum-espresso/qe-6.1/pseudo/4.1.2-pseudos/O.pbe-van_ak.UPF
     MD5 check sum: 78c19812648e8988a0fe644b0f25305e
     Pseudo is Ultrasoft, Zval =  6.0
     Generated by new atomic code, or converted to UPF format
     Using radial grid of  737 points,  4 beta functions with:
                l(1) =   0
                l(2) =   0
                l(3) =   1
                l(4) =   1
     Q(r) pseudized with  8 coefficients,  rinner =    0.800   0.800   0.800


     atomic species   valence    mass     pseudopotential
        O              6.00     1.00000     O ( 1.00)

     No symmetry found



   Cartesian axes

     site n.     atom                  positions (alat units)
         1           O   tau(   1) = (   0.0000000   0.0000000   0.0000000  )
         2           O   tau(   2) = (   2.8761475   2.4116208   4.2578437  )

     number of k points=     4
                       cart. coord. in units 2pi/alat
        k(    1) = (   0.0789515   0.0297226   0.0277756), wk =   0.5000000
        k(    2) = (   0.0789515   0.0297226  -0.0465599), wk =   0.5000000
        k(    3) = (   0.0789515  -0.0650914   0.0325043), wk =   0.5000000
        k(    4) = (   0.0789515  -0.0650914  -0.0418312), wk =   0.5000000

     Dense  grid:     1361 G-vectors     FFT dimensions: (   9,  15,  20)

     Estimated max dynamical RAM per process >       0.99MB

     Initial potential from superposition of free atoms

     starting charge   12.00000, renormalised to   12.00000
     Starting wfc are    8 randomized atomic wfcs

     total cpu time spent up to now is        0.4 secs

     per-process dynamical memory:     5.5 Mb

     Self-consistent Calculation

     iteration #  1     ecut=    20.00 Ry     beta=0.30
     Davidson diagonalization with overlap
     ethr =  1.00E-02,  avg # of iterations =  2.0

     Threshold (ethr) on eigenvalues was too large:
     Diagonalizing with lowered threshold

     Davidson diagonalization with overlap
     ethr =  8.61E-04,  avg # of iterations =  1.0

     total cpu time spent up to now is        0.4 secs

     total energy              =     -63.00130507 Ry
     Harris-Foulkes estimate   =     -63.02141450 Ry
     estimated scf accuracy    <       0.10201668 Ry

     iteration #  2     ecut=    20.00 Ry     beta=0.30
     Davidson diagonalization with overlap
     ethr =  8.50E-04,  avg # of iterations =  1.0

     total cpu time spent up to now is        0.4 secs

     total energy              =     -62.98657751 Ry
     Harris-Foulkes estimate   =     -63.00249917 Ry
     estimated scf accuracy    <       0.04465348 Ry

     iteration #  3     ecut=    20.00 Ry     beta=0.30
     Davidson diagonalization with overlap
     ethr =  3.72E-04,  avg # of iterations =  2.8

     total cpu time spent up to now is        0.4 secs

     total energy              =     -62.99365604 Ry
     Harris-Foulkes estimate   =     -62.99447694 Ry
     estimated scf accuracy    <       0.00310735 Ry

     iteration #  4     ecut=    20.00 Ry     beta=0.30
     Davidson diagonalization with overlap
     ethr =  2.59E-05,  avg # of iterations =  3.8

     total cpu time spent up to now is        0.4 secs

     total energy              =     -62.99579540 Ry
     Harris-Foulkes estimate   =     -62.99591308 Ry
     estimated scf accuracy    <       0.00440739 Ry

     iteration #  5     ecut=    20.00 Ry     beta=0.30
     Davidson diagonalization with overlap
     ethr =  2.59E-05,  avg # of iterations =  1.0

     total cpu time spent up to now is        0.5 secs

     total energy              =     -62.99459000 Ry
     Harris-Foulkes estimate   =     -62.99580646 Ry
     estimated scf accuracy    <       0.00403721 Ry

     iteration #  6     ecut=    20.00 Ry     beta=0.30
     Davidson diagonalization with overlap
     ethr =  2.59E-05,  avg # of iterations =  3.8

     total cpu time spent up to now is        0.5 secs

     total energy              =     -62.99670433 Ry
     Harris-Foulkes estimate   =     -62.99546979 Ry
     estimated scf accuracy    <       0.00766230 Ry

     iteration #  7     ecut=    20.00 Ry     beta=0.30
     Davidson diagonalization with overlap
     ethr =  2.59E-05,  avg # of iterations =  3.2

     total cpu time spent up to now is        0.5 secs

     total energy              =     -62.99187763 Ry
     Harris-Foulkes estimate   =     -62.99806950 Ry
     estimated scf accuracy    <       0.07339294 Ry

     iteration #  8     ecut=    20.00 Ry     beta=0.30
     Davidson diagonalization with overlap
     ethr =  2.59E-05,  avg # of iterations =  3.5

     total cpu time spent up to now is        0.5 secs

     total energy              =     -62.99515972 Ry
     Harris-Foulkes estimate   =     -62.99526906 Ry
     estimated scf accuracy    <       0.00123379 Ry

     iteration #  9     ecut=    20.00 Ry     beta=0.30
     Davidson diagonalization with overlap
     ethr =  1.03E-05,  avg # of iterations =  2.5

     total cpu time spent up to now is        0.5 secs

     total energy              =     -62.99511148 Ry
     Harris-Foulkes estimate   =     -62.99526102 Ry
     estimated scf accuracy    <       0.00062246 Ry

     iteration # 10     ecut=    20.00 Ry     beta=0.30
     Davidson diagonalization with overlap
     ethr =  5.19E-06,  avg # of iterations =  1.8

     total cpu time spent up to now is        0.5 secs

     total energy              =     -62.99507609 Ry
     Harris-Foulkes estimate   =     -62.99514020 Ry
     estimated scf accuracy    <       0.00041906 Ry

     iteration # 11     ecut=    20.00 Ry     beta=0.30
     Davidson diagonalization with overlap
     ethr =  3.49E-06,  avg # of iterations =  3.2

     total cpu time spent up to now is        0.5 secs

     total energy              =     -62.99515847 Ry
     Harris-Foulkes estimate   =     -62.99516203 Ry
     estimated scf accuracy    <       0.00005040 Ry

     iteration # 12     ecut=    20.00 Ry     beta=0.30
     Davidson diagonalization with overlap
     ethr =  4.20E-07,  avg # of iterations =  1.8

     total cpu time spent up to now is        0.5 secs

     total energy              =     -62.99514738 Ry
     Harris-Foulkes estimate   =     -62.99516180 Ry
     estimated scf accuracy    <       0.00007471 Ry

     iteration # 13     ecut=    20.00 Ry     beta=0.30
     Davidson diagonalization with overlap
     ethr =  4.20E-07,  avg # of iterations =  1.0

     total cpu time spent up to now is        0.6 secs

     total energy              =     -62.99514366 Ry
     Harris-Foulkes estimate   =     -62.99514887 Ry
     estimated scf accuracy    <       0.00003336 Ry

     iteration # 14     ecut=    20.00 Ry     beta=0.30
     Davidson diagonalization with overlap
     ethr =  2.78E-07,  avg # of iterations =  3.5

     total cpu time spent up to now is        0.6 secs

     total energy              =     -62.99515271 Ry
     Harris-Foulkes estimate   =     -62.99515524 Ry
     estimated scf accuracy    <       0.00006349 Ry

     iteration # 15     ecut=    20.00 Ry     beta=0.30
     Davidson diagonalization with overlap
     ethr =  2.78E-07,  avg # of iterations =  1.0

     total cpu time spent up to now is        0.6 secs

     total energy              =     -62.99515010 Ry
     Harris-Foulkes estimate   =     -62.99515289 Ry
     estimated scf accuracy    <       0.00004798 Ry

     iteration # 16     ecut=    20.00 Ry     beta=0.30
     Davidson diagonalization with overlap
     ethr =  2.78E-07,  avg # of iterations =  1.0

     total cpu time spent up to now is        0.6 secs

     total energy              =     -62.99515128 Ry
     Harris-Foulkes estimate   =     -62.99515077 Ry
     estimated scf accuracy    <       0.00002466 Ry

     iteration # 17     ecut=    20.00 Ry     beta=0.30
     Davidson diagonalization with overlap
     ethr =  2.06E-07,  avg # of iterations =  1.0

     total cpu time spent up to now is        0.6 secs

     total energy              =     -62.99515044 Ry
     Harris-Foulkes estimate   =     -62.99515161 Ry
     estimated scf accuracy    <       0.00002183 Ry

     iteration # 18     ecut=    20.00 Ry     beta=0.30
     Davidson diagonalization with overlap
     ethr =  1.82E-07,  avg # of iterations =  3.0

     total cpu time spent up to now is        0.6 secs

     total energy              =     -62.99515340 Ry
     Harris-Foulkes estimate   =     -62.99515251 Ry
     estimated scf accuracy    <       0.00000501 Ry

     iteration # 19     ecut=    20.00 Ry     beta=0.30
     Davidson diagonalization with overlap
     ethr =  4.17E-08,  avg # of iterations =  3.8

     total cpu time spent up to now is        0.6 secs

     total energy              =     -62.99515190 Ry
     Harris-Foulkes estimate   =     -62.99515522 Ry
     estimated scf accuracy    <       0.00007382 Ry

     iteration # 20     ecut=    20.00 Ry     beta=0.30
     Davidson diagonalization with overlap
     ethr =  4.17E-08,  avg # of iterations =  3.0

     total cpu time spent up to now is        0.7 secs

     total energy              =     -62.99515211 Ry
     Harris-Foulkes estimate   =     -62.99515274 Ry
     estimated scf accuracy    <       0.00001638 Ry

     iteration # 21     ecut=    20.00 Ry     beta=0.30
     Davidson diagonalization with overlap
     ethr =  4.17E-08,  avg # of iterations =  1.0

     total cpu time spent up to now is        0.7 secs

     total energy              =     -62.99515185 Ry
     Harris-Foulkes estimate   =     -62.99515218 Ry
     estimated scf accuracy    <       0.00001159 Ry

     iteration # 22     ecut=    20.00 Ry     beta=0.30
     Davidson diagonalization with overlap
     ethr =  4.17E-08,  avg # of iterations =  1.0

     total cpu time spent up to now is        0.7 secs

     total energy              =     -62.99515090 Ry
     Harris-Foulkes estimate   =     -62.99515194 Ry
     estimated scf accuracy    <       0.00000897 Ry

     iteration # 23     ecut=    20.00 Ry     beta=0.30
     Davidson diagonalization with overlap
     ethr =  4.17E-08,  avg # of iterations =  3.0

     total cpu time spent up to now is        0.7 secs

     total energy              =     -62.99515190 Ry
     Harris-Foulkes estimate   =     -62.99515285 Ry
     estimated scf accuracy    <       0.00001678 Ry

     iteration # 24     ecut=    20.00 Ry     beta=0.30
     Davidson diagonalization with overlap
     ethr =  4.17E-08,  avg # of iterations =  3.0

     total cpu time spent up to now is        0.8 secs

     total energy              =     -62.99515210 Ry
     Harris-Foulkes estimate   =     -62.99515222 Ry
     estimated scf accuracy    <       0.00000159 Ry

     iteration # 25     ecut=    20.00 Ry     beta=0.30
     Davidson diagonalization with overlap
     ethr =  1.33E-08,  avg # of iterations =  1.0

     total cpu time spent up to now is        0.8 secs

     End of self-consistent calculation

          k = 0.0790 0.0297 0.0278 (   162 PWs)   bands (ev):

   -16.1009 -12.2221  -0.3481   2.4869   3.7007   3.8095

          k = 0.0790 0.0297-0.0466 (   169 PWs)   bands (ev):

   -15.9592 -12.5151   0.5776   1.4271   3.5077   4.5324

          k = 0.0790-0.0651 0.0325 (   165 PWs)   bands (ev):

   -15.4427 -12.8242   0.1166   0.4715   3.3071   4.6744

          k = 0.0790-0.0651-0.0418 (   170 PWs)   bands (ev):

   -15.4558 -12.7367  -0.9763   0.8046   3.2114   4.7072

     highest occupied level (ev):     4.7072

!    total energy              =     -62.99515140 Ry
     Harris-Foulkes estimate   =     -62.99515213 Ry
     estimated scf accuracy    <       0.00000082 Ry

     The total energy is the sum of the following terms:

     one-electron contribution =     -14.94545291 Ry
     hartree contribution      =      14.79149975 Ry
     xc contribution           =     -13.44715942 Ry
     ewald contribution        =     -49.39403883 Ry

     convergence has been achieved in  25 iterations

     Forces acting on atoms (cartesian axes, Ry/au):

     atom    1 type  1   force =    -0.03569532    0.22030656   -0.16647688
     atom    2 type  1   force =     0.03569532   -0.22030656    0.16647688

     Total force =     0.393761     Total SCF correction =     0.001192


     Computing stress (Cartesian axis) and pressure

          total   stress  (Ry/bohr**3)                   (kbar)     P= -678.90
   0.00783814  -0.00002047  -0.00019501       1153.03     -3.01    -28.69
  -0.00002047  -0.01064649   0.00341621         -3.01  -1566.15    502.54
  -0.00019501   0.00341621  -0.01103688        -28.69    502.54  -1623.58


     BFGS Geometry Optimization

     number of scf cycles    =   1
     number of bfgs steps    =   0

     enthalpy new            =     -62.2316271159 Ry

     new trust radius        =       0.5000000000 bohr
     new conv_thr            =       0.0000010000 Ry

     new unit-cell volume =     67.42017 a.u.^3 (     9.99064 Ang^3 )
     density =      0.33242 g/cm^3

CELL_PARAMETERS (alat=  1.00000000)
   3.209288281  -0.000842032  -0.008021133
   1.195769138   4.078213883   0.231021307
   0.665853291   0.557748857   5.181183336

ATOMIC_POSITIONS (crystal)
O       -0.011522815   0.022524489  -0.012859930
O        0.629541815   0.394518511   0.645877930



     Writing output data file pwscf.save
     NEW-OLD atomic charge density approx. for the potential

     negative rho (up, down):  3.937E-01 0.000E+00
     extrapolated charge    4.00867, renormalised to   12.00000

     total cpu time spent up to now is        1.1 secs

     per-process dynamical memory:     6.3 Mb

     Self-consistent Calculation

     iteration #  1     ecut=    20.00 Ry     beta=0.30
     Davidson diagonalization with overlap
     ethr =  1.00E-06,  avg # of iterations = 15.0

     negative rho (up, down):  1.479E-01 0.000E+00

     total cpu time spent up to now is        1.1 secs

     total energy              =     -63.60690570 Ry
     Harris-Foulkes estimate   =     -67.78715315 Ry
     estimated scf accuracy    <      16.16379282 Ry

     iteration #  2     ecut=    20.00 Ry     beta=0.30
     Davidson diagonalization with overlap
     ethr =  1.00E-02,  avg # of iterations =  3.8

     total cpu time spent up to now is        1.1 secs

     total energy              =     -63.09907074 Ry
     Harris-Foulkes estimate   =     -65.91404828 Ry
     estimated scf accuracy    <       6.07206244 Ry

     iteration #  3     ecut=    20.00 Ry     beta=0.30
     Davidson diagonalization with overlap
     ethr =  1.00E-02,  avg # of iterations =  2.5

     total cpu time spent up to now is        1.2 secs

     total energy              =     -63.06346674 Ry
     Harris-Foulkes estimate   =     -63.44122876 Ry
     estimated scf accuracy    <       0.79216874 Ry

     iteration #  4     ecut=    20.00 Ry     beta=0.30
     Davidson diagonalization with overlap
     ethr =  6.60E-03,  avg # of iterations =  2.5

     total cpu time spent up to now is        1.2 secs

     total energy              =     -63.21102069 Ry
     Harris-Foulkes estimate   =     -63.21407826 Ry
     estimated scf accuracy    <       0.02131206 Ry

     iteration #  5     ecut=    20.00 Ry     beta=0.30
     Davidson diagonalization with overlap
     ethr =  1.78E-04,  avg # of iterations =  4.2

     total cpu time spent up to now is        1.2 secs

     total energy              =     -63.26488107 Ry
     Harris-Foulkes estimate   =     -63.26786998 Ry
     estimated scf accuracy    <       0.06199950 Ry

     iteration #  6     ecut=    20.00 Ry     beta=0.30
     Davidson diagonalization with overlap
     ethr =  1.78E-04,  avg # of iterations =  1.0

     total cpu time spent up to now is        1.2 secs

     total energy              =     -63.24482282 Ry
     Harris-Foulkes estimate   =     -63.26496214 Ry
     estimated scf accuracy    <       0.05445670 Ry

     iteration #  7     ecut=    20.00 Ry     beta=0.30
     Davidson diagonalization with overlap
     ethr =  1.78E-04,  avg # of iterations =  4.5

     total cpu time spent up to now is        1.2 secs

     total energy              =     -63.25671452 Ry
     Harris-Foulkes estimate   =     -63.26059366 Ry
     estimated scf accuracy    <       0.02921731 Ry

     iteration #  8     ecut=    20.00 Ry     beta=0.30
     Davidson diagonalization with overlap
     ethr =  1.78E-04,  avg # of iterations =  1.0

     total cpu time spent up to now is        1.2 secs

     total energy              =     -63.24782732 Ry
     Harris-Foulkes estimate   =     -63.25682560 Ry
     estimated scf accuracy    <       0.02007277 Ry

     iteration #  9     ecut=    20.00 Ry     beta=0.30
     Davidson diagonalization with overlap
     ethr =  1.67E-04,  avg # of iterations =  3.5

     total cpu time spent up to now is        1.2 secs

     total energy              =     -63.25301761 Ry
     Harris-Foulkes estimate   =     -63.25414715 Ry
     estimated scf accuracy    <       0.00428055 Ry

     iteration # 10     ecut=    20.00 Ry     beta=0.30
     Davidson diagonalization with overlap
     ethr =  3.57E-05,  avg # of iterations =  2.5

     total cpu time spent up to now is        1.2 secs

     total energy              =     -63.25306142 Ry
     Harris-Foulkes estimate   =     -63.25332882 Ry
     estimated scf accuracy    <       0.00175770 Ry

     iteration # 11     ecut=    20.00 Ry     beta=0.30
     Davidson diagonalization with overlap
     ethr =  1.46E-05,  avg # of iterations =  2.0

     total cpu time spent up to now is        1.3 secs

     total energy              =     -63.25311078 Ry
     Harris-Foulkes estimate   =     -63.25317417 Ry
     estimated scf accuracy    <       0.00067702 Ry

     iteration # 12     ecut=    20.00 Ry     beta=0.30
     Davidson diagonalization with overlap
     ethr =  5.64E-06,  avg # of iterations =  2.5

     total cpu time spent up to now is        1.3 secs

     total energy              =     -63.25314222 Ry
     Harris-Foulkes estimate   =     -63.25318500 Ry
     estimated scf accuracy    <       0.00026799 Ry

     iteration # 13     ecut=    20.00 Ry     beta=0.30
     Davidson diagonalization with overlap
     ethr =  2.23E-06,  avg # of iterations =  1.0

     total cpu time spent up to now is        1.3 secs

     total energy              =     -63.25310166 Ry
     Harris-Foulkes estimate   =     -63.25314668 Ry
     estimated scf accuracy    <       0.00015472 Ry

     iteration # 14     ecut=    20.00 Ry     beta=0.30
     Davidson diagonalization with overlap
     ethr =  1.29E-06,  avg # of iterations =  3.5

     total cpu time spent up to now is        1.3 secs

     total energy              =     -63.25312487 Ry
     Harris-Foulkes estimate   =     -63.25313022 Ry
     estimated scf accuracy    <       0.00001597 Ry

     iteration # 15     ecut=    20.00 Ry     beta=0.30
     Davidson diagonalization with overlap
     ethr =  1.33E-07,  avg # of iterations =  3.5

     total cpu time spent up to now is        1.3 secs

     total energy              =     -63.25312735 Ry
     Harris-Foulkes estimate   =     -63.25312785 Ry
     estimated scf accuracy    <       0.00000183 Ry

     iteration # 16     ecut=    20.00 Ry     beta=0.30
     Davidson diagonalization with overlap
     ethr =  1.52E-08,  avg # of iterations =  1.5

     total cpu time spent up to now is        1.3 secs

     End of self-consistent calculation

          k = 0.0780 0.0365 0.0343 (   162 PWs)   bands (ev):

   -15.1140  -0.2750   3.6291   8.1453   9.9794  12.3624

          k = 0.0778 0.0421-0.0628 (   169 PWs)   bands (ev):

   -14.7700  -2.5893   5.4029   7.8156   9.8176  13.6094

          k = 0.0780-0.0869 0.0476 (   165 PWs)   bands (ev):

   -13.7646  -2.8304   4.2827   5.5436   8.9845  14.9298

          k = 0.0778-0.0813-0.0495 (   170 PWs)   bands (ev):

   -13.8304  -1.4219   2.5275   5.8178   7.5871  15.3459

     highest occupied level (ev):    15.3459

!    total energy              =     -63.25312714 Ry
     Harris-Foulkes estimate   =     -63.25312747 Ry
     estimated scf accuracy    <       0.00000068 Ry

     The total energy is the sum of the following terms:

     one-electron contribution =      -1.01860194 Ry
     hartree contribution      =      11.07462616 Ry
     xc contribution           =     -14.21121319 Ry
     ewald contribution        =     -59.09793817 Ry

     convergence has been achieved in  16 iterations

     Forces acting on atoms (cartesian axes, Ry/au):

     atom    1 type  1   force =    -0.01144206    0.07616423   -0.01089579
     atom    2 type  1   force =     0.01144206   -0.07616423    0.01089579

     Total force =     0.110006     Total SCF correction =     0.001006


     Computing stress (Cartesian axis) and pressure

          total   stress  (Ry/bohr**3)                   (kbar)     P= 2349.83
   0.02824509   0.00017903  -0.00186358       4155.00     26.34   -274.14
   0.00017903   0.00875383   0.00265035         26.34   1287.73    389.88
  -0.00186358   0.00265035   0.01092250       -274.14    389.88   1606.75


     number of scf cycles    =   2
     number of bfgs steps    =   1

     enthalpy old            =     -62.2316271159 Ry
     enthalpy new            =     -62.7948140369 Ry

     CASE: enthalpy_new < enthalpy_old

     new trust radius        =       0.5011850229 bohr
     new conv_thr            =       0.0000000762 Ry

     new unit-cell volume =     72.59046 a.u.^3 (    10.75680 Ang^3 )
     density =      0.30874 g/cm^3

CELL_PARAMETERS (alat=  1.00000000)
   4.177941769   0.007044556  -0.093747466
   1.584383555   3.657809315   0.549426423
   0.639087575   0.997105359   4.898565325

ATOMIC_POSITIONS (crystal)
O       -0.024498559   0.044275901  -0.019988150
O        0.642517559   0.372767099   0.653006150



     Writing output data file pwscf.save
     NEW-OLD atomic charge density approx. for the potential
     extrapolated charge   12.85470, renormalised to   12.00000

     total cpu time spent up to now is        1.5 secs

     per-process dynamical memory:     6.3 Mb

     Self-consistent Calculation

     iteration #  1     ecut=    20.00 Ry     beta=0.30
     Davidson diagonalization with overlap
     ethr =  1.00E-06,  avg # of iterations = 11.0

     total cpu time spent up to now is        1.6 secs

     total energy              =     -62.92962875 Ry
     Harris-Foulkes estimate   =     -62.60821333 Ry
     estimated scf accuracy    <       0.07609110 Ry

     iteration #  2     ecut=    20.00 Ry     beta=0.30
     Davidson diagonalization with overlap
     ethr =  6.34E-04,  avg # of iterations =  2.5

     total cpu time spent up to now is        1.6 secs

     total energy              =     -62.99775026 Ry
     Harris-Foulkes estimate   =     -63.00000138 Ry
     estimated scf accuracy    <       0.02284495 Ry

     iteration #  3     ecut=    20.00 Ry     beta=0.30
     Davidson diagonalization with overlap
     ethr =  1.90E-04,  avg # of iterations =  1.2

     total cpu time spent up to now is        1.6 secs

     total energy              =     -62.99674121 Ry
     Harris-Foulkes estimate   =     -62.99844978 Ry
     estimated scf accuracy    <       0.01148030 Ry

     iteration #  4     ecut=    20.00 Ry     beta=0.30
     Davidson diagonalization with overlap
     ethr =  9.57E-05,  avg # of iterations =  2.5

     total cpu time spent up to now is        1.6 secs

     total energy              =     -62.99810578 Ry
     Harris-Foulkes estimate   =     -62.99832081 Ry
     estimated scf accuracy    <       0.00061967 Ry

     iteration #  5     ecut=    20.00 Ry     beta=0.30
     Davidson diagonalization with overlap
     ethr =  5.16E-06,  avg # of iterations =  1.5

     total cpu time spent up to now is        1.6 secs

     total energy              =     -62.99803703 Ry
     Harris-Foulkes estimate   =     -62.99814366 Ry
     estimated scf accuracy    <       0.00018478 Ry

     iteration #  6     ecut=    20.00 Ry     beta=0.30
     Davidson diagonalization with overlap
     ethr =  1.54E-06,  avg # of iterations =  2.0

     total cpu time spent up to now is        1.6 secs

     total energy              =     -62.99808557 Ry
     Harris-Foulkes estimate   =     -62.99809462 Ry
     estimated scf accuracy    <       0.00002732 Ry

     iteration #  7     ecut=    20.00 Ry     beta=0.30
     Davidson diagonalization with overlap
     ethr =  2.28E-07,  avg # of iterations =  2.0

     total cpu time spent up to now is        1.6 secs

     total energy              =     -62.99808600 Ry
     Harris-Foulkes estimate   =     -62.99808850 Ry
     estimated scf accuracy    <       0.00000876 Ry

     iteration #  8     ecut=    20.00 Ry     beta=0.30
     Davidson diagonalization with overlap
     ethr =  7.30E-08,  avg # of iterations =  1.0

     total cpu time spent up to now is        1.7 secs

     total energy              =     -62.99808410 Ry
     Harris-Foulkes estimate   =     -62.99808631 Ry
     estimated scf accuracy    <       0.00000358 Ry

     iteration #  9     ecut=    20.00 Ry     beta=0.30
     Davidson diagonalization with overlap
     ethr =  2.99E-08,  avg # of iterations =  3.0

     total cpu time spent up to now is        1.7 secs

     End of self-consistent calculation

          k = 0.0606 0.0368 0.0357 (   162 PWs)   bands (ev):

   -20.4053  -1.8400   2.8414   4.8349   5.9931  12.8616

          k = 0.0582 0.0536-0.0695 (   169 PWs)   bands (ev):

   -20.1027  -2.8301   1.2970   5.0760   6.3779  13.0174

          k = 0.0615-0.1046 0.0643 (   165 PWs)   bands (ev):

   -19.4650  -2.9161   1.0583   2.3505   5.5676  14.9984

          k = 0.0591-0.0878-0.0409 (   170 PWs)   bands (ev):

   -19.6703  -2.5091   1.3785   3.6991   5.1786  14.5696

     highest occupied level (ev):    14.9984

!    total energy              =     -62.99808492 Ry
     Harris-Foulkes estimate   =     -62.99808497 Ry
     estimated scf accuracy    <       0.00000007 Ry

     The total energy is the sum of the following terms:

     one-electron contribution =      -5.09478925 Ry
     hartree contribution      =      12.05000526 Ry
     xc contribution           =     -14.27671222 Ry
     ewald contribution        =     -55.67658872 Ry

     convergence has been achieved in   9 iterations

     Forces acting on atoms (cartesian axes, Ry/au):

     atom    1 type  1   force =     0.83014474   -0.52817132    0.76741960
     atom    2 type  1   force =    -0.83014474    0.52817132   -0.76741960

     Total force =     1.764675     Total SCF correction =     0.000967


     Computing stress (Cartesian axis) and pressure

          total   stress  (Ry/bohr**3)                   (kbar)     P= 1121.13
  -0.01524709  -0.00991929   0.01688741      -2242.92  -1459.18   2484.22
  -0.00991929   0.01639859  -0.00881862      -1459.18   2412.32  -1297.26
   0.01688741  -0.00881862   0.02171245       2484.22  -1297.26   3194.01


     number of scf cycles    =   3
     number of bfgs steps    =   2

     enthalpy old            =     -62.7948140369 Ry
     enthalpy new            =     -62.5046249503 Ry

     CASE: enthalpy_new > enthalpy_old

     new trust radius        =       0.1225919214 bohr
     new conv_thr            =       0.0000000762 Ry

     new unit-cell volume =     69.79804 a.u.^3 (    10.34300 Ang^3 )
     density =      0.32109 g/cm^3

CELL_PARAMETERS (alat=  1.00000000)
   3.506609892   0.001578703  -0.034334249
   1.315051694   3.949173556   0.328753595
   0.657637736   0.692606352   5.094435656

ATOMIC_POSITIONS (crystal)
O       -0.015505631   0.029200937  -0.015047889
O        0.633524631   0.387842063   0.648065889



     Writing output data file pwscf.save
     NEW-OLD atomic charge density approx. for the potential
     extrapolated charge   11.51992, renormalised to   12.00000

     total cpu time spent up to now is        1.8 secs

     per-process dynamical memory:     6.3 Mb

     Self-consistent Calculation

     iteration #  1     ecut=    20.00 Ry     beta=0.30
     Davidson diagonalization with overlap
     ethr =  1.00E-06,  avg # of iterations = 13.0

     total cpu time spent up to now is        1.9 secs

     total energy              =     -63.30912825 Ry
     Harris-Foulkes estimate   =     -63.48992781 Ry
     estimated scf accuracy    <       0.04788845 Ry

     iteration #  2     ecut=    20.00 Ry     beta=0.30
     Davidson diagonalization with overlap
     ethr =  3.99E-04,  avg # of iterations =  2.0

     total cpu time spent up to now is        1.9 secs

     total energy              =     -63.33067502 Ry
     Harris-Foulkes estimate   =     -63.33018257 Ry
     estimated scf accuracy    <       0.00940039 Ry

     iteration #  3     ecut=    20.00 Ry     beta=0.30
     Davidson diagonalization with overlap
     ethr =  7.83E-05,  avg # of iterations =  1.0

     total cpu time spent up to now is        1.9 secs

     total energy              =     -63.33157282 Ry
     Harris-Foulkes estimate   =     -63.33087117 Ry
     estimated scf accuracy    <       0.00404522 Ry

     iteration #  4     ecut=    20.00 Ry     beta=0.30
     Davidson diagonalization with overlap
     ethr =  3.37E-05,  avg # of iterations =  2.8

     total cpu time spent up to now is        1.9 secs

     total energy              =     -63.33281631 Ry
     Harris-Foulkes estimate   =     -63.33289249 Ry
     estimated scf accuracy    <       0.00144051 Ry

     iteration #  5     ecut=    20.00 Ry     beta=0.30
     Davidson diagonalization with overlap
     ethr =  1.20E-05,  avg # of iterations =  1.0

     total cpu time spent up to now is        1.9 secs

     total energy              =     -63.33267523 Ry
     Harris-Foulkes estimate   =     -63.33283967 Ry
     estimated scf accuracy    <       0.00126189 Ry

     iteration #  6     ecut=    20.00 Ry     beta=0.30
     Davidson diagonalization with overlap
     ethr =  1.05E-05,  avg # of iterations =  1.0

     total cpu time spent up to now is        1.9 secs

     total energy              =     -63.33232428 Ry
     Harris-Foulkes estimate   =     -63.33268392 Ry
     estimated scf accuracy    <       0.00089502 Ry

     iteration #  7     ecut=    20.00 Ry     beta=0.30
     Davidson diagonalization with overlap
     ethr =  7.46E-06,  avg # of iterations =  4.5

     total cpu time spent up to now is        2.0 secs

     total energy              =     -63.33247467 Ry
     Harris-Foulkes estimate   =     -63.33301541 Ry
     estimated scf accuracy    <       0.00195544 Ry

     iteration #  8     ecut=    20.00 Ry     beta=0.30
     Davidson diagonalization with overlap
     ethr =  7.46E-06,  avg # of iterations =  1.8

     total cpu time spent up to now is        2.0 secs

     total energy              =     -63.33259151 Ry
     Harris-Foulkes estimate   =     -63.33254317 Ry
     estimated scf accuracy    <       0.00036149 Ry

     iteration #  9     ecut=    20.00 Ry     beta=0.30
     Davidson diagonalization with overlap
     ethr =  3.01E-06,  avg # of iterations =  1.8

     total cpu time spent up to now is        2.0 secs

     total energy              =     -63.33250877 Ry
     Harris-Foulkes estimate   =     -63.33261097 Ry
     estimated scf accuracy    <       0.00037653 Ry

     iteration # 10     ecut=    20.00 Ry     beta=0.30
     Davidson diagonalization with overlap
     ethr =  3.01E-06,  avg # of iterations =  1.8

     total cpu time spent up to now is        2.0 secs

     total energy              =     -63.33248622 Ry
     Harris-Foulkes estimate   =     -63.33252468 Ry
     estimated scf accuracy    <       0.00009586 Ry

     iteration # 11     ecut=    20.00 Ry     beta=0.30
     Davidson diagonalization with overlap
     ethr =  7.99E-07,  avg # of iterations =  3.8

     total cpu time spent up to now is        2.0 secs

     total energy              =     -63.33252756 Ry
     Harris-Foulkes estimate   =     -63.33254317 Ry
     estimated scf accuracy    <       0.00005921 Ry

     iteration # 12     ecut=    20.00 Ry     beta=0.30
     Davidson diagonalization with overlap
     ethr =  4.93E-07,  avg # of iterations =  1.0

     total cpu time spent up to now is        2.0 secs

     total energy              =     -63.33252247 Ry
     Harris-Foulkes estimate   =     -63.33252847 Ry
     estimated scf accuracy    <       0.00002109 Ry

     iteration # 13     ecut=    20.00 Ry     beta=0.30
     Davidson diagonalization with overlap
     ethr =  1.76E-07,  avg # of iterations =  3.0

     total cpu time spent up to now is        2.0 secs

     total energy              =     -63.33253008 Ry
     Harris-Foulkes estimate   =     -63.33252788 Ry
     estimated scf accuracy    <       0.00000152 Ry

     iteration # 14     ecut=    20.00 Ry     beta=0.30
     Davidson diagonalization with overlap
     ethr =  1.27E-08,  avg # of iterations =  4.5

     total cpu time spent up to now is        2.0 secs

     total energy              =     -63.33252548 Ry
     Harris-Foulkes estimate   =     -63.33253245 Ry
     estimated scf accuracy    <       0.00001892 Ry

     iteration # 15     ecut=    20.00 Ry     beta=0.30
     Davidson diagonalization with overlap
     ethr =  1.27E-08,  avg # of iterations =  4.5

     total cpu time spent up to now is        2.1 secs

     total energy              =     -63.33252857 Ry
     Harris-Foulkes estimate   =     -63.33252758 Ry
     estimated scf accuracy    <       0.00000014 Ry

     iteration # 16     ecut=    20.00 Ry     beta=0.30
     Davidson diagonalization with overlap
     ethr =  1.14E-09,  avg # of iterations =  5.2

     total cpu time spent up to now is        2.1 secs

     total energy              =     -63.33252941 Ry
     Harris-Foulkes estimate   =     -63.33252955 Ry
     estimated scf accuracy    <       0.00000832 Ry

     iteration # 17     ecut=    20.00 Ry     beta=0.30
     Davidson diagonalization with overlap
     ethr =  1.14E-09,  avg # of iterations =  1.0

     total cpu time spent up to now is        2.1 secs

     total energy              =     -63.33252853 Ry
     Harris-Foulkes estimate   =     -63.33252941 Ry
     estimated scf accuracy    <       0.00000788 Ry

     iteration # 18     ecut=    20.00 Ry     beta=0.30
     Davidson diagonalization with overlap
     ethr =  1.14E-09,  avg # of iterations =  3.8

     total cpu time spent up to now is        2.1 secs

     total energy              =     -63.33252793 Ry
     Harris-Foulkes estimate   =     -63.33252860 Ry
     estimated scf accuracy    <       0.00000434 Ry

     iteration # 19     ecut=    20.00 Ry     beta=0.30
     Davidson diagonalization with overlap
     ethr =  1.14E-09,  avg # of iterations =  3.8

     total cpu time spent up to now is        2.1 secs

     total energy              =     -63.33252785 Ry
     Harris-Foulkes estimate   =     -63.33252799 Ry
     estimated scf accuracy    <       0.00000179 Ry

     iteration # 20     ecut=    20.00 Ry     beta=0.30
     Davidson diagonalization with overlap
     ethr =  1.14E-09,  avg # of iterations =  1.0

     total cpu time spent up to now is        2.1 secs

     total energy              =     -63.33252731 Ry
     Harris-Foulkes estimate   =     -63.33252786 Ry
     estimated scf accuracy    <       0.00000147 Ry

     iteration # 21     ecut=    20.00 Ry     beta=0.30
     Davidson diagonalization with overlap
     ethr =  1.14E-09,  avg # of iterations =  4.8

     total cpu time spent up to now is        2.1 secs

     End of self-consistent calculation

          k = 0.0716 0.0366 0.0349 (   162 PWs)   bands (ev):

   -16.6098  -0.4544   2.9130   6.5499   8.5646  12.0790

          k = 0.0706 0.0451-0.0643 (   169 PWs)   bands (ev):

   -16.2945  -2.5800   3.4329   7.0544   8.4573  12.9244

          k = 0.0718-0.0916 0.0522 (   165 PWs)   bands (ev):

   -15.3389  -2.8562   3.0227   3.9557   7.8063  14.7820

          k = 0.0709-0.0830-0.0469 (   170 PWs)   bands (ev):

   -15.4730  -1.3980   1.8996   4.3308   6.6388  14.4884

     highest occupied level (ev):    14.7820

!    total energy              =     -63.33252754 Ry
     Harris-Foulkes estimate   =     -63.33252757 Ry
     estimated scf accuracy    <       0.00000005 Ry

     The total energy is the sum of the following terms:

     one-electron contribution =      -2.25451183 Ry
     hartree contribution      =      11.25113995 Ry
     xc contribution           =     -14.19492403 Ry
     ewald contribution        =     -58.13423164 Ry

     convergence has been achieved in  21 iterations

     Forces acting on atoms (cartesian axes, Ry/au):

     atom    1 type  1   force =     0.10702233   -0.13102745    0.09764943
     atom    2 type  1   force =    -0.10702233    0.13102745   -0.09764943

     Total force =     0.276251     Total SCF correction =     0.000172


     Computing stress (Cartesian axis) and pressure

          total   stress  (Ry/bohr**3)                   (kbar)     P= 1629.00
   0.01040989  -0.00157494   0.00068398       1531.35   -231.68    100.62
  -0.00157494   0.01102668  -0.00157857       -231.68   1622.08   -232.22
   0.00068398  -0.00157857   0.01178465        100.62   -232.22   1733.58


     number of scf cycles    =   4
     number of bfgs steps    =   2

     enthalpy old            =     -62.7948140369 Ry
     enthalpy new            =     -62.8580500350 Ry

     CASE: enthalpy_new < enthalpy_old

     new trust radius        =       0.1249668790 bohr
     new conv_thr            =       0.0000001310 Ry

     new unit-cell volume =     79.79093 a.u.^3 (    11.82380 Ang^3 )
     density =      0.28088 g/cm^3

CELL_PARAMETERS (alat=  1.00000000)
   3.702090381  -0.063783100  -0.008225475
   1.224055886   4.040787415   0.209943058
   0.784035365   0.531656269   5.332953687

ATOMIC_POSITIONS (crystal)
O        0.019084683   0.019437839  -0.009987611
O        0.598934317   0.397605161   0.643005611



     Writing output data file pwscf.save
     NEW-OLD atomic charge density approx. for the potential
     extrapolated charge   13.50286, renormalised to   12.00000

     total cpu time spent up to now is        2.3 secs

     per-process dynamical memory:     6.3 Mb

     Self-consistent Calculation

     iteration #  1     ecut=    20.00 Ry     beta=0.30
     Davidson diagonalization with overlap
     ethr =  1.00E-06,  avg # of iterations = 10.8

     total cpu time spent up to now is        2.4 secs

     total energy              =     -63.15525505 Ry
     Harris-Foulkes estimate   =     -62.90526812 Ry
     estimated scf accuracy    <       0.21199973 Ry

     iteration #  2     ecut=    20.00 Ry     beta=0.30
     Davidson diagonalization with overlap
     ethr =  1.77E-03,  avg # of iterations =  2.8

     total cpu time spent up to now is        2.4 secs

     total energy              =     -63.36958496 Ry
     Harris-Foulkes estimate   =     -63.37612069 Ry
     estimated scf accuracy    <       0.02675160 Ry

     iteration #  3     ecut=    20.00 Ry     beta=0.30
     Davidson diagonalization with overlap
     ethr =  2.23E-04,  avg # of iterations =  1.8

     total cpu time spent up to now is        2.4 secs

     total energy              =     -63.36548847 Ry
     Harris-Foulkes estimate   =     -63.37129675 Ry
     estimated scf accuracy    <       0.01266039 Ry

     iteration #  4     ecut=    20.00 Ry     beta=0.30
     Davidson diagonalization with overlap
     ethr =  1.06E-04,  avg # of iterations =  2.0

     total cpu time spent up to now is        2.4 secs

     total energy              =     -63.36724498 Ry
     Harris-Foulkes estimate   =     -63.36721035 Ry
     estimated scf accuracy    <       0.00035870 Ry

     iteration #  5     ecut=    20.00 Ry     beta=0.30
     Davidson diagonalization with overlap
     ethr =  2.99E-06,  avg # of iterations =  4.5

     total cpu time spent up to now is        2.4 secs

     total energy              =     -63.36749534 Ry
     Harris-Foulkes estimate   =     -63.36756776 Ry
     estimated scf accuracy    <       0.00030615 Ry

     iteration #  6     ecut=    20.00 Ry     beta=0.30
     Davidson diagonalization with overlap
     ethr =  2.55E-06,  avg # of iterations =  1.0

     total cpu time spent up to now is        2.4 secs

     total energy              =     -63.36742703 Ry
     Harris-Foulkes estimate   =     -63.36750023 Ry
     estimated scf accuracy    <       0.00012712 Ry

     iteration #  7     ecut=    20.00 Ry     beta=0.30
     Davidson diagonalization with overlap
     ethr =  1.06E-06,  avg # of iterations =  3.8

     total cpu time spent up to now is        2.4 secs

     total energy              =     -63.36747524 Ry
     Harris-Foulkes estimate   =     -63.36748668 Ry
     estimated scf accuracy    <       0.00007393 Ry

     iteration #  8     ecut=    20.00 Ry     beta=0.30
     Davidson diagonalization with overlap
     ethr =  6.16E-07,  avg # of iterations =  1.0

     total cpu time spent up to now is        2.5 secs

     total energy              =     -63.36746044 Ry
     Harris-Foulkes estimate   =     -63.36747601 Ry
     estimated scf accuracy    <       0.00004473 Ry

     iteration #  9     ecut=    20.00 Ry     beta=0.30
     Davidson diagonalization with overlap
     ethr =  3.73E-07,  avg # of iterations =  2.8

     total cpu time spent up to now is        2.5 secs

     total energy              =     -63.36746773 Ry
     Harris-Foulkes estimate   =     -63.36746783 Ry
     estimated scf accuracy    <       0.00000103 Ry

     iteration # 10     ecut=    20.00 Ry     beta=0.30
     Davidson diagonalization with overlap
     ethr =  8.62E-09,  avg # of iterations =  3.2

     total cpu time spent up to now is        2.5 secs

     total energy              =     -63.36746798 Ry
     Harris-Foulkes estimate   =     -63.36746826 Ry
     estimated scf accuracy    <       0.00000088 Ry

     iteration # 11     ecut=    20.00 Ry     beta=0.30
     Davidson diagonalization with overlap
     ethr =  7.32E-09,  avg # of iterations =  2.0

     total cpu time spent up to now is        2.5 secs

     total energy              =     -63.36746785 Ry
     Harris-Foulkes estimate   =     -63.36746808 Ry
     estimated scf accuracy    <       0.00000055 Ry

     iteration # 12     ecut=    20.00 Ry     beta=0.30
     Davidson diagonalization with overlap
     ethr =  4.60E-09,  avg # of iterations =  2.8

     total cpu time spent up to now is        2.5 secs

     End of self-consistent calculation

          k = 0.0683 0.0395 0.0329 (   162 PWs)   bands (ev):

   -15.0037  -3.5438   2.7092   4.6552   7.6662   8.4927

          k = 0.0682 0.0444-0.0613 (   169 PWs)   bands (ev):

   -14.6030  -5.1280   2.8429   5.4132   6.3857  10.1564

          k = 0.0662-0.0843 0.0456 (   165 PWs)   bands (ev):

   -13.5332  -5.7927   2.5196   3.2136   5.3830  11.5705

          k = 0.0661-0.0793-0.0487 (   170 PWs)   bands (ev):

   -13.6444  -5.0207   1.3047   3.5165   5.1302  11.5792

     highest occupied level (ev):    11.5792

!    total energy              =     -63.36746791 Ry
     Harris-Foulkes estimate   =     -63.36746793 Ry
     estimated scf accuracy    <       0.00000005 Ry

     The total energy is the sum of the following terms:

     one-electron contribution =      -3.17063729 Ry
     hartree contribution      =      10.86724717 Ry
     xc contribution           =     -13.80437988 Ry
     ewald contribution        =     -57.25969790 Ry

     convergence has been achieved in  12 iterations

     Forces acting on atoms (cartesian axes, Ry/au):

     atom    1 type  1   force =    -0.02862652    0.13329716   -0.16302028
     atom    2 type  1   force =     0.02862652   -0.13329716    0.16302028

     Total force =     0.300544     Total SCF correction =     0.000582


     Computing stress (Cartesian axis) and pressure

          total   stress  (Ry/bohr**3)                   (kbar)     P=  107.47
  -0.00387599   0.00053443  -0.00207982       -570.18     78.62   -305.95
   0.00053443   0.00347339   0.00369116         78.62    510.95    542.99
  -0.00207982   0.00369116   0.00259429       -305.95    542.99    381.63


     number of scf cycles    =   5
     number of bfgs steps    =   3

     enthalpy old            =     -62.8580500350 Ry
     enthalpy new            =     -62.8250600988 Ry

     CASE: enthalpy_new > enthalpy_old

     new trust radius        =       0.0477050165 bohr
     new conv_thr            =       0.0000001310 Ry

     new unit-cell volume =     73.43845 a.u.^3 (    10.88245 Ang^3 )
     density =      0.30518 g/cm^3

CELL_PARAMETERS (alat=  1.00000000)
   3.579112044  -0.022663468  -0.024650713
   1.281302076   3.983152404   0.284687716
   0.704517607   0.632911252   5.182900088

ATOMIC_POSITIONS (crystal)
O       -0.002676360   0.025579882  -0.013171072
O        0.620695360   0.391463118   0.646189072



     Writing output data file pwscf.save
     NEW-OLD atomic charge density approx. for the potential
     extrapolated charge   10.96199, renormalised to   12.00000

     total cpu time spent up to now is        2.7 secs

     per-process dynamical memory:     6.3 Mb

     Self-consistent Calculation

     iteration #  1     ecut=    20.00 Ry     beta=0.30
     Davidson diagonalization with overlap
     ethr =  1.00E-06,  avg # of iterations =  9.0

     total cpu time spent up to now is        2.7 secs

     total energy              =     -63.28813509 Ry
     Harris-Foulkes estimate   =     -63.69999935 Ry
     estimated scf accuracy    <       0.09711618 Ry

     iteration #  2     ecut=    20.00 Ry     beta=0.30
     Davidson diagonalization with overlap
     ethr =  8.09E-04,  avg # of iterations =  2.0

     total cpu time spent up to now is        2.7 secs

     total energy              =     -63.37045861 Ry
     Harris-Foulkes estimate   =     -63.37261460 Ry
     estimated scf accuracy    <       0.00952149 Ry

     iteration #  3     ecut=    20.00 Ry     beta=0.30
     Davidson diagonalization with overlap
     ethr =  7.93E-05,  avg # of iterations =  2.0

     total cpu time spent up to now is        2.7 secs

     total energy              =     -63.36976475 Ry
     Harris-Foulkes estimate   =     -63.37126798 Ry
     estimated scf accuracy    <       0.00372325 Ry

     iteration #  4     ecut=    20.00 Ry     beta=0.30
     Davidson diagonalization with overlap
     ethr =  3.10E-05,  avg # of iterations =  2.0

     total cpu time spent up to now is        2.8 secs

     total energy              =     -63.37037585 Ry
     Harris-Foulkes estimate   =     -63.37032781 Ry
     estimated scf accuracy    <       0.00014006 Ry

     iteration #  5     ecut=    20.00 Ry     beta=0.30
     Davidson diagonalization with overlap
     ethr =  1.17E-06,  avg # of iterations =  4.2

     total cpu time spent up to now is        2.8 secs

     total energy              =     -63.37043727 Ry
     Harris-Foulkes estimate   =     -63.37045498 Ry
     estimated scf accuracy    <       0.00007535 Ry

     iteration #  6     ecut=    20.00 Ry     beta=0.30
     Davidson diagonalization with overlap
     ethr =  6.28E-07,  avg # of iterations =  1.8

     total cpu time spent up to now is        2.8 secs

     total energy              =     -63.37044818 Ry
     Harris-Foulkes estimate   =     -63.37044231 Ry
     estimated scf accuracy    <       0.00002006 Ry

     iteration #  7     ecut=    20.00 Ry     beta=0.30
     Davidson diagonalization with overlap
     ethr =  1.67E-07,  avg # of iterations =  3.5

     total cpu time spent up to now is        2.8 secs

     total energy              =     -63.37045303 Ry
     Harris-Foulkes estimate   =     -63.37045521 Ry
     estimated scf accuracy    <       0.00000825 Ry

     iteration #  8     ecut=    20.00 Ry     beta=0.30
     Davidson diagonalization with overlap
     ethr =  6.88E-08,  avg # of iterations =  1.2

     total cpu time spent up to now is        2.8 secs

     total energy              =     -63.37045186 Ry
     Harris-Foulkes estimate   =     -63.37045330 Ry
     estimated scf accuracy    <       0.00000370 Ry

     iteration #  9     ecut=    20.00 Ry     beta=0.30
     Davidson diagonalization with overlap
     ethr =  3.09E-08,  avg # of iterations =  2.8

     total cpu time spent up to now is        2.8 secs

     End of self-consistent calculation

          k = 0.0703 0.0377 0.0341 (   162 PWs)   bands (ev):

   -15.8730  -1.5418   2.7824   5.8491   8.2964  10.5872

          k = 0.0697 0.0449-0.0632 (   169 PWs)   bands (ev):

   -15.5231  -3.4808   3.1706   6.5473   7.6631  11.7431

          k = 0.0696-0.0887 0.0496 (   165 PWs)   bands (ev):

   -14.5057  -3.9887   2.8803   3.6980   6.8649  13.4963

          k = 0.0690-0.0816-0.0477 (   170 PWs)   bands (ev):

   -14.6456  -2.7400   1.6035   4.0844   6.0681  13.3137

     highest occupied level (ev):    13.4963

!    total energy              =     -63.37045261 Ry
     Harris-Foulkes estimate   =     -63.37045265 Ry
     estimated scf accuracy    <       0.00000009 Ry

     The total energy is the sum of the following terms:

     one-electron contribution =      -2.49823407 Ry
     hartree contribution      =      11.05274918 Ry
     xc contribution           =     -14.03338953 Ry
     ewald contribution        =     -57.89157818 Ry

     convergence has been achieved in   9 iterations

     Forces acting on atoms (cartesian axes, Ry/au):

     atom    1 type  1   force =     0.02468514    0.01366082   -0.05679083
     atom    2 type  1   force =    -0.02468514   -0.01366082    0.05679083

     Total force =     0.089679     Total SCF correction =     0.000469


     Computing stress (Cartesian axis) and pressure

          total   stress  (Ry/bohr**3)                   (kbar)     P=  905.81
   0.00437789  -0.00017829  -0.00112383        644.01    -26.23   -165.32
  -0.00017829   0.00726076   0.00147776        -26.23   1068.09    217.39
  -0.00112383   0.00147776   0.00683405       -165.32    217.39   1005.32


     number of scf cycles    =   6
     number of bfgs steps    =   3

     enthalpy old            =     -62.8580500350 Ry
     enthalpy new            =     -62.8712281113 Ry

     CASE: enthalpy_new < enthalpy_old

     new trust radius        =       0.0579983699 bohr
     new conv_thr            =       0.0000000568 Ry

     new unit-cell volume =     75.13553 a.u.^3 (    11.13394 Ang^3 )
     density =      0.29828 g/cm^3

CELL_PARAMETERS (alat=  1.00000000)
   3.539924680  -0.042689080  -0.063772625
   1.221478454   4.066465454   0.385661433
   0.570881264   0.778159113   5.268858064

ATOMIC_POSITIONS (crystal)
O        0.013148178   0.024617097  -0.017303500
O        0.604870822   0.392425903   0.650321500



     Writing output data file pwscf.save
     NEW-OLD atomic charge density approx. for the potential
     extrapolated charge   12.27104, renormalised to   12.00000

     total cpu time spent up to now is        3.0 secs

     per-process dynamical memory:     6.3 Mb

     Self-consistent Calculation

     iteration #  1     ecut=    20.00 Ry     beta=0.30
     Davidson diagonalization with overlap
     ethr =  1.00E-06,  avg # of iterations =  9.8

     total cpu time spent up to now is        3.0 secs

     total energy              =     -63.38694554 Ry
     Harris-Foulkes estimate   =     -63.28100546 Ry
     estimated scf accuracy    <       0.01135093 Ry

     iteration #  2     ecut=    20.00 Ry     beta=0.30
     Davidson diagonalization with overlap
     ethr =  9.46E-05,  avg # of iterations =  2.0

     total cpu time spent up to now is        3.0 secs

     total energy              =     -63.39275933 Ry
     Harris-Foulkes estimate   =     -63.39353196 Ry
     estimated scf accuracy    <       0.00427482 Ry

     iteration #  3     ecut=    20.00 Ry     beta=0.30
     Davidson diagonalization with overlap
     ethr =  3.56E-05,  avg # of iterations =  1.8

     total cpu time spent up to now is        3.0 secs

     total energy              =     -63.39277951 Ry
     Harris-Foulkes estimate   =     -63.39308121 Ry
     estimated scf accuracy    <       0.00121841 Ry

     iteration #  4     ecut=    20.00 Ry     beta=0.30
     Davidson diagonalization with overlap
     ethr =  1.02E-05,  avg # of iterations =  1.8

     total cpu time spent up to now is        3.1 secs

     total energy              =     -63.39299888 Ry
     Harris-Foulkes estimate   =     -63.39299813 Ry
     estimated scf accuracy    <       0.00009957 Ry

     iteration #  5     ecut=    20.00 Ry     beta=0.30
     Davidson diagonalization with overlap
     ethr =  8.30E-07,  avg # of iterations =  3.5

     total cpu time spent up to now is        3.1 secs

     total energy              =     -63.39304318 Ry
     Harris-Foulkes estimate   =     -63.39304129 Ry
     estimated scf accuracy    <       0.00001959 Ry

     iteration #  6     ecut=    20.00 Ry     beta=0.30
     Davidson diagonalization with overlap
     ethr =  1.63E-07,  avg # of iterations =  1.0

     total cpu time spent up to now is        3.1 secs

     total energy              =     -63.39304519 Ry
     Harris-Foulkes estimate   =     -63.39304364 Ry
     estimated scf accuracy    <       0.00000432 Ry

     iteration #  7     ecut=    20.00 Ry     beta=0.30
     Davidson diagonalization with overlap
     ethr =  3.60E-08,  avg # of iterations =  3.8

     total cpu time spent up to now is        3.1 secs

     total energy              =     -63.39304825 Ry
     Harris-Foulkes estimate   =     -63.39304773 Ry
     estimated scf accuracy    <       0.00000349 Ry

     iteration #  8     ecut=    20.00 Ry     beta=0.30
     Davidson diagonalization with overlap
     ethr =  2.91E-08,  avg # of iterations =  1.0

     total cpu time spent up to now is        3.1 secs

     total energy              =     -63.39304632 Ry
     Harris-Foulkes estimate   =     -63.39304827 Ry
     estimated scf accuracy    <       0.00000478 Ry

     iteration #  9     ecut=    20.00 Ry     beta=0.30
     Davidson diagonalization with overlap
     ethr =  2.91E-08,  avg # of iterations =  3.0

     total cpu time spent up to now is        3.1 secs

     total energy              =     -63.39304685 Ry
     Harris-Foulkes estimate   =     -63.39304685 Ry
     estimated scf accuracy    <       0.00000006 Ry

     iteration # 10     ecut=    20.00 Ry     beta=0.30
     Davidson diagonalization with overlap
     ethr =  5.25E-10,  avg # of iterations =  3.2

     total cpu time spent up to now is        3.1 secs

     total energy              =     -63.39304686 Ry
     Harris-Foulkes estimate   =     -63.39304688 Ry
     estimated scf accuracy    <       0.00000008 Ry

     iteration # 11     ecut=    20.00 Ry     beta=0.30
     Davidson diagonalization with overlap
     ethr =  5.25E-10,  avg # of iterations =  1.0

     total cpu time spent up to now is        3.1 secs

     End of self-consistent calculation

          k = 0.0717 0.0367 0.0343 (   162 PWs)   bands (ev):

   -16.4893  -1.9188   2.1635   4.9271   7.3407  10.5342

          k = 0.0701 0.0463-0.0619 (   169 PWs)   bands (ev):

   -16.1867  -3.7429   2.3093   5.8097   7.2809  11.2352

          k = 0.0705-0.0877 0.0528 (   165 PWs)   bands (ev):

   -15.3394  -4.2810   2.0706   3.1715   6.6449  13.0283

          k = 0.0689-0.0781-0.0434 (   170 PWs)   bands (ev):

   -15.5420  -2.9212   1.5548   3.2813   5.4913  12.8692

     highest occupied level (ev):    13.0283

!    total energy              =     -63.39304684 Ry
     Harris-Foulkes estimate   =     -63.39304686 Ry
     estimated scf accuracy    <       0.00000005 Ry

     The total energy is the sum of the following terms:

     one-electron contribution =      -4.16203026 Ry
     hartree contribution      =      11.64713534 Ry
     xc contribution           =     -14.03737276 Ry
     ewald contribution        =     -56.84077915 Ry

     convergence has been achieved in  11 iterations

     Forces acting on atoms (cartesian axes, Ry/au):

     atom    1 type  1   force =     0.04503943    0.02258786    0.01961372
     atom    2 type  1   force =    -0.04503943   -0.02258786   -0.01961372

     Total force =     0.076465     Total SCF correction =     0.000277


     Computing stress (Cartesian axis) and pressure

          total   stress  (Ry/bohr**3)                   (kbar)     P=  895.90
   0.00650144  -0.00020098   0.00028962        956.39    -29.56     42.60
  -0.00020098   0.00581943   0.00101495        -29.56    856.07    149.30
   0.00028962   0.00101495   0.00594971         42.60    149.30    875.23


     number of scf cycles    =   7
     number of bfgs steps    =   4

     enthalpy old            =     -62.8712281113 Ry
     enthalpy new            =     -62.8822857958 Ry

     CASE: enthalpy_new < enthalpy_old

     new trust radius        =       0.1726620533 bohr
     new conv_thr            =       0.0000000450 Ry

     new unit-cell volume =     74.64287 a.u.^3 (    11.06093 Ang^3 )
     density =      0.30025 g/cm^3

CELL_PARAMETERS (alat=  1.00000000)
   3.506139804  -0.094218453  -0.099323172
   1.081063609   4.097595490   0.693562796
   0.449374080   1.175629318   5.354657641

ATOMIC_POSITIONS (crystal)
O        0.061825888   0.025260071  -0.018497658
O        0.556193112   0.391782929   0.651515658



     Writing output data file pwscf.save
     NEW-OLD atomic charge density approx. for the potential
     extrapolated charge   11.92080, renormalised to   12.00000

     total cpu time spent up to now is        3.4 secs

     per-process dynamical memory:     6.3 Mb

     Self-consistent Calculation

     iteration #  1     ecut=    20.00 Ry     beta=0.30
     Davidson diagonalization with overlap
     ethr =  1.00E-06,  avg # of iterations = 11.0

     total cpu time spent up to now is        3.4 secs

     total energy              =     -63.40776377 Ry
     Harris-Foulkes estimate   =     -63.44700320 Ry
     estimated scf accuracy    <       0.02291139 Ry

     iteration #  2     ecut=    20.00 Ry     beta=0.30
     Davidson diagonalization with overlap
     ethr =  1.91E-04,  avg # of iterations =  1.0

     total cpu time spent up to now is        3.4 secs

     total energy              =     -63.40770671 Ry
     Harris-Foulkes estimate   =     -63.40831278 Ry
     estimated scf accuracy    <       0.01035912 Ry

     iteration #  3     ecut=    20.00 Ry     beta=0.30
     Davidson diagonalization with overlap
     ethr =  8.63E-05,  avg # of iterations =  1.2

     total cpu time spent up to now is        3.4 secs

     total energy              =     -63.40845823 Ry
     Harris-Foulkes estimate   =     -63.40832409 Ry
     estimated scf accuracy    <       0.00034464 Ry

     iteration #  4     ecut=    20.00 Ry     beta=0.30
     Davidson diagonalization with overlap
     ethr =  2.87E-06,  avg # of iterations =  3.8

     total cpu time spent up to now is        3.4 secs

     total energy              =     -63.40880529 Ry
     Harris-Foulkes estimate   =     -63.40881784 Ry
     estimated scf accuracy    <       0.00023635 Ry

     iteration #  5     ecut=    20.00 Ry     beta=0.30
     Davidson diagonalization with overlap
     ethr =  1.97E-06,  avg # of iterations =  1.0

     total cpu time spent up to now is        3.4 secs

     total energy              =     -63.40871162 Ry
     Harris-Foulkes estimate   =     -63.40880563 Ry
     estimated scf accuracy    <       0.00021559 Ry

     iteration #  6     ecut=    20.00 Ry     beta=0.30
     Davidson diagonalization with overlap
     ethr =  1.80E-06,  avg # of iterations =  2.8

     total cpu time spent up to now is        3.5 secs

     total energy              =     -63.40875504 Ry
     Harris-Foulkes estimate   =     -63.40876358 Ry
     estimated scf accuracy    <       0.00003121 Ry

     iteration #  7     ecut=    20.00 Ry     beta=0.30
     Davidson diagonalization with overlap
     ethr =  2.60E-07,  avg # of iterations =  1.2

     total cpu time spent up to now is        3.5 secs

     total energy              =     -63.40875012 Ry
     Harris-Foulkes estimate   =     -63.40875637 Ry
     estimated scf accuracy    <       0.00001490 Ry

     iteration #  8     ecut=    20.00 Ry     beta=0.30
     Davidson diagonalization with overlap
     ethr =  1.24E-07,  avg # of iterations =  2.2

     total cpu time spent up to now is        3.5 secs

     total energy              =     -63.40875053 Ry
     Harris-Foulkes estimate   =     -63.40875146 Ry
     estimated scf accuracy    <       0.00000164 Ry

     iteration #  9     ecut=    20.00 Ry     beta=0.30
     Davidson diagonalization with overlap
     ethr =  1.36E-08,  avg # of iterations =  3.2

     total cpu time spent up to now is        3.5 secs

     total energy              =     -63.40875099 Ry
     Harris-Foulkes estimate   =     -63.40875109 Ry
     estimated scf accuracy    <       0.00000023 Ry

     iteration # 10     ecut=    20.00 Ry     beta=0.30
     Davidson diagonalization with overlap
     ethr =  1.93E-09,  avg # of iterations =  1.2

     total cpu time spent up to now is        3.5 secs

     End of self-consistent calculation

          k = 0.0732 0.0362 0.0326 (   162 PWs)   bands (ev):

   -16.7512  -1.7011   1.9698   3.8371   6.5808  11.4907

          k = 0.0709 0.0532-0.0643 (   169 PWs)   bands (ev):

   -16.3155  -3.9255   0.8944   5.6561   7.9439  11.3727

          k = 0.0706-0.0899 0.0605 (   165 PWs)   bands (ev):

   -15.7183  -4.1446   0.5153   3.3306   7.6853  12.5528

          k = 0.0683-0.0729-0.0364 (   170 PWs)   bands (ev):

   -16.1275  -2.3737   1.8979   2.7326   5.0967  13.0327

     highest occupied level (ev):    13.0327

!    total energy              =     -63.40875098 Ry
     Harris-Foulkes estimate   =     -63.40875100 Ry
     estimated scf accuracy    <       0.00000004 Ry

     The total energy is the sum of the following terms:

     one-electron contribution =      -4.98540256 Ry
     hartree contribution      =      12.03071793 Ry
     xc contribution           =     -14.10043988 Ry
     ewald contribution        =     -56.35362647 Ry

     convergence has been achieved in  10 iterations

     Forces acting on atoms (cartesian axes, Ry/au):

     atom    1 type  1   force =     0.05470881    0.04003312    0.06362190
     atom    2 type  1   force =    -0.05470881   -0.04003312   -0.06362190

     Total force =     0.131480     Total SCF correction =     0.000569


     Computing stress (Cartesian axis) and pressure

          total   stress  (Ry/bohr**3)                   (kbar)     P=  843.77
   0.00745647  -0.00079318   0.00343149       1096.88   -116.68    504.79
  -0.00079318   0.00473779  -0.00151707       -116.68    696.95   -223.17
   0.00343149  -0.00151707   0.00501318        504.79   -223.17    737.46


     number of scf cycles    =   8
     number of bfgs steps    =   5

     enthalpy old            =     -62.8822857958 Ry
     enthalpy new            =     -62.9013389571 Ry

     CASE: enthalpy_new < enthalpy_old

     new trust radius        =       0.1397719423 bohr
     new conv_thr            =       0.0000000636 Ry

     new unit-cell volume =     72.06185 a.u.^3 (    10.67846 Ang^3 )
     density =      0.31101 g/cm^3

CELL_PARAMETERS (alat=  1.00000000)
   3.492959834  -0.156324242  -0.049372515
   0.890899276   4.052904051   0.907023773
   0.619671654   1.397575365   5.352232833

ATOMIC_POSITIONS (crystal)
O        0.098674009   0.033075053  -0.019845747
O        0.519344991   0.383967947   0.652863747



     Writing output data file pwscf.save
     NEW-OLD atomic charge density approx. for the potential
     extrapolated charge   11.57020, renormalised to   12.00000

     total cpu time spent up to now is        3.8 secs

     per-process dynamical memory:     6.3 Mb

     Self-consistent Calculation

     iteration #  1     ecut=    20.00 Ry     beta=0.30
     Davidson diagonalization with overlap
     ethr =  1.00E-06,  avg # of iterations =  8.8

     total cpu time spent up to now is        3.8 secs

     total energy              =     -63.34918352 Ry
     Harris-Foulkes estimate   =     -63.58915108 Ry
     estimated scf accuracy    <       0.02384883 Ry

     iteration #  2     ecut=    20.00 Ry     beta=0.30
     Davidson diagonalization with overlap
     ethr =  1.99E-04,  avg # of iterations =  2.0

     total cpu time spent up to now is        3.8 secs

     total energy              =     -63.36710442 Ry
     Harris-Foulkes estimate   =     -63.36680492 Ry
     estimated scf accuracy    <       0.00433557 Ry

     iteration #  3     ecut=    20.00 Ry     beta=0.30
     Davidson diagonalization with overlap
     ethr =  3.61E-05,  avg # of iterations =  1.0

     total cpu time spent up to now is        3.8 secs

     total energy              =     -63.36781367 Ry
     Harris-Foulkes estimate   =     -63.36721301 Ry
     estimated scf accuracy    <       0.00207313 Ry

     iteration #  4     ecut=    20.00 Ry     beta=0.30
     Davidson diagonalization with overlap
     ethr =  1.73E-05,  avg # of iterations =  2.0

     total cpu time spent up to now is        3.9 secs

     total energy              =     -63.36816473 Ry
     Harris-Foulkes estimate   =     -63.36817293 Ry
     estimated scf accuracy    <       0.00020690 Ry

     iteration #  5     ecut=    20.00 Ry     beta=0.30
     Davidson diagonalization with overlap
     ethr =  1.72E-06,  avg # of iterations =  1.8

     total cpu time spent up to now is        3.9 secs

     total energy              =     -63.36816878 Ry
     Harris-Foulkes estimate   =     -63.36817265 Ry
     estimated scf accuracy    <       0.00019061 Ry

     iteration #  6     ecut=    20.00 Ry     beta=0.30
     Davidson diagonalization with overlap
     ethr =  1.59E-06,  avg # of iterations =  1.0

     total cpu time spent up to now is        3.9 secs

     total energy              =     -63.36808226 Ry
     Harris-Foulkes estimate   =     -63.36816934 Ry
     estimated scf accuracy    <       0.00018202 Ry

     iteration #  7     ecut=    20.00 Ry     beta=0.30
     Davidson diagonalization with overlap
     ethr =  1.52E-06,  avg # of iterations =  2.0

     total cpu time spent up to now is        3.9 secs

     total energy              =     -63.36810457 Ry
     Harris-Foulkes estimate   =     -63.36810905 Ry
     estimated scf accuracy    <       0.00004767 Ry

     iteration #  8     ecut=    20.00 Ry     beta=0.30
     Davidson diagonalization with overlap
     ethr =  3.97E-07,  avg # of iterations =  1.2

     total cpu time spent up to now is        3.9 secs

     total energy              =     -63.36809515 Ry
     Harris-Foulkes estimate   =     -63.36810569 Ry
     estimated scf accuracy    <       0.00003518 Ry

     iteration #  9     ecut=    20.00 Ry     beta=0.30
     Davidson diagonalization with overlap
     ethr =  2.93E-07,  avg # of iterations =  1.0

     total cpu time spent up to now is        3.9 secs

     total energy              =     -63.36809226 Ry
     Harris-Foulkes estimate   =     -63.36809603 Ry
     estimated scf accuracy    <       0.00001610 Ry

     iteration # 10     ecut=    20.00 Ry     beta=0.30
     Davidson diagonalization with overlap
     ethr =  1.34E-07,  avg # of iterations =  1.0

     total cpu time spent up to now is        4.0 secs

     total energy              =     -63.36809212 Ry
     Harris-Foulkes estimate   =     -63.36809254 Ry
     estimated scf accuracy    <       0.00000835 Ry

     iteration # 11     ecut=    20.00 Ry     beta=0.30
     Davidson diagonalization with overlap
     ethr =  6.96E-08,  avg # of iterations =  1.0

     total cpu time spent up to now is        4.0 secs

     total energy              =     -63.36808937 Ry
     Harris-Foulkes estimate   =     -63.36809220 Ry
     estimated scf accuracy    <       0.00000728 Ry

     iteration # 12     ecut=    20.00 Ry     beta=0.30
     Davidson diagonalization with overlap
     ethr =  6.07E-08,  avg # of iterations =  2.2

     total cpu time spent up to now is        4.0 secs

     total energy              =     -63.36808957 Ry
     Harris-Foulkes estimate   =     -63.36808987 Ry
     estimated scf accuracy    <       0.00000125 Ry

     iteration # 13     ecut=    20.00 Ry     beta=0.30
     Davidson diagonalization with overlap
     ethr =  1.04E-08,  avg # of iterations =  1.0

     total cpu time spent up to now is        4.1 secs

     total energy              =     -63.36808933 Ry
     Harris-Foulkes estimate   =     -63.36808962 Ry
     estimated scf accuracy    <       0.00000061 Ry

     iteration # 14     ecut=    20.00 Ry     beta=0.30
     Davidson diagonalization with overlap
     ethr =  5.05E-09,  avg # of iterations =  3.2

     total cpu time spent up to now is        4.1 secs

     total energy              =     -63.36808943 Ry
     Harris-Foulkes estimate   =     -63.36808951 Ry
     estimated scf accuracy    <       0.00000014 Ry

     iteration # 15     ecut=    20.00 Ry     beta=0.30
     Davidson diagonalization with overlap
     ethr =  1.17E-09,  avg # of iterations =  2.0

     total cpu time spent up to now is        4.1 secs

     End of self-consistent calculation

          k = 0.0737 0.0392 0.0279 (   162 PWs)   bands (ev):

   -17.4524  -1.1284   1.9220   3.9739   6.1894  13.0128

          k = 0.0733 0.0615-0.0713 (   169 PWs)   bands (ev):

   -16.8609  -3.5651   0.0112   5.2821   9.0319  12.7095

          k = 0.0684-0.0907 0.0625 (   165 PWs)   bands (ev):

   -16.5340  -3.3405  -0.4532   3.9433   8.8425  12.5450

          k = 0.0680-0.0684-0.0367 (   170 PWs)   bands (ev):

   -17.0371  -1.7973   1.9587   3.1739   5.3817  14.1131

     highest occupied level (ev):    14.1131

!    total energy              =     -63.36808946 Ry
     Harris-Foulkes estimate   =     -63.36808946 Ry
     estimated scf accuracy    <          4.0E-09 Ry

     The total energy is the sum of the following terms:

     one-electron contribution =      -5.42313634 Ry
     hartree contribution      =      12.42298295 Ry
     xc contribution           =     -14.23987532 Ry
     ewald contribution        =     -56.12806075 Ry

     convergence has been achieved in  15 iterations

     Forces acting on atoms (cartesian axes, Ry/au):

     atom    1 type  1   force =    -0.17244402   -0.05802834    0.20530705
     atom    2 type  1   force =     0.17244402    0.05802834   -0.20530705

     Total force =     0.387957     Total SCF correction =     0.000112


     Computing stress (Cartesian axis) and pressure

          total   stress  (Ry/bohr**3)                   (kbar)     P= 1120.50
   0.01064354   0.00262294  -0.00077182       1565.72    385.85   -113.54
   0.00262294   0.00480975  -0.00500839        385.85    707.54   -736.76
  -0.00077182  -0.00500839   0.00739781       -113.54   -736.76   1088.26


     number of scf cycles    =   9
     number of bfgs steps    =   6

     enthalpy old            =     -62.9013389571 Ry
     enthalpy new            =     -62.8782228580 Ry

     CASE: enthalpy_new > enthalpy_old

     new trust radius        =       0.0378038741 bohr
     new conv_thr            =       0.0000000636 Ry

     new unit-cell volume =     73.98469 a.u.^3 (    10.96340 Ang^3 )
     density =      0.30292 g/cm^3

CELL_PARAMETERS (alat=  1.00000000)
   3.502502229  -0.111359196  -0.085537156
   1.028579645   4.085260980   0.752476463
   0.496374964   1.236884803   5.353988412

ATOMIC_POSITIONS (crystal)
O        0.071995700   0.027416949  -0.018869721
O        0.546023300   0.389626051   0.651887721



     Writing output data file pwscf.save
     NEW-OLD atomic charge density approx. for the potential
     extrapolated charge   12.31188, renormalised to   12.00000

     total cpu time spent up to now is        4.3 secs

     per-process dynamical memory:     6.3 Mb

     Self-consistent Calculation

     iteration #  1     ecut=    20.00 Ry     beta=0.30
     Davidson diagonalization with overlap
     ethr =  1.00E-06,  avg # of iterations =  9.0

     total cpu time spent up to now is        4.3 secs

     total energy              =     -63.39908385 Ry
     Harris-Foulkes estimate   =     -63.25855946 Ry
     estimated scf accuracy    <       0.01329745 Ry

     iteration #  2     ecut=    20.00 Ry     beta=0.30
     Davidson diagonalization with overlap
     ethr =  1.11E-04,  avg # of iterations =  2.0

     total cpu time spent up to now is        4.3 secs

     total energy              =     -63.40927988 Ry
     Harris-Foulkes estimate   =     -63.40920744 Ry
     estimated scf accuracy    <       0.00222188 Ry

     iteration #  3     ecut=    20.00 Ry     beta=0.30
     Davidson diagonalization with overlap
     ethr =  1.85E-05,  avg # of iterations =  1.0

     total cpu time spent up to now is        4.3 secs

     total energy              =     -63.40956649 Ry
     Harris-Foulkes estimate   =     -63.40934227 Ry
     estimated scf accuracy    <       0.00106583 Ry

     iteration #  4     ecut=    20.00 Ry     beta=0.30
     Davidson diagonalization with overlap
     ethr =  8.88E-06,  avg # of iterations =  2.0

     total cpu time spent up to now is        4.4 secs

     total energy              =     -63.40974818 Ry
     Harris-Foulkes estimate   =     -63.40975884 Ry
     estimated scf accuracy    <       0.00011202 Ry

     iteration #  5     ecut=    20.00 Ry     beta=0.30
     Davidson diagonalization with overlap
     ethr =  9.34E-07,  avg # of iterations =  1.2

     total cpu time spent up to now is        4.4 secs

     total energy              =     -63.40971993 Ry
     Harris-Foulkes estimate   =     -63.40975146 Ry
     estimated scf accuracy    <       0.00009188 Ry

     iteration #  6     ecut=    20.00 Ry     beta=0.30
     Davidson diagonalization with overlap
     ethr =  7.66E-07,  avg # of iterations =  1.0

     total cpu time spent up to now is        4.4 secs

     total energy              =     -63.40970584 Ry
     Harris-Foulkes estimate   =     -63.40972381 Ry
     estimated scf accuracy    <       0.00002736 Ry

     iteration #  7     ecut=    20.00 Ry     beta=0.30
     Davidson diagonalization with overlap
     ethr =  2.28E-07,  avg # of iterations =  2.0

     total cpu time spent up to now is        4.4 secs

     total energy              =     -63.40971340 Ry
     Harris-Foulkes estimate   =     -63.40971378 Ry
     estimated scf accuracy    <       0.00000170 Ry

     iteration #  8     ecut=    20.00 Ry     beta=0.30
     Davidson diagonalization with overlap
     ethr =  1.42E-08,  avg # of iterations =  1.8

     total cpu time spent up to now is        4.4 secs

     total energy              =     -63.40971338 Ry
     Harris-Foulkes estimate   =     -63.40971351 Ry
     estimated scf accuracy    <       0.00000074 Ry

     iteration #  9     ecut=    20.00 Ry     beta=0.30
     Davidson diagonalization with overlap
     ethr =  6.21E-09,  avg # of iterations =  1.5

     total cpu time spent up to now is        4.4 secs

     total energy              =     -63.40971338 Ry
     Harris-Foulkes estimate   =     -63.40971341 Ry
     estimated scf accuracy    <       0.00000012 Ry

     iteration # 10     ecut=    20.00 Ry     beta=0.30
     Davidson diagonalization with overlap
     ethr =  1.03E-09,  avg # of iterations =  2.8

     total cpu time spent up to now is        4.5 secs

     End of self-consistent calculation

          k = 0.0733 0.0370 0.0314 (   162 PWs)   bands (ev):

   -16.7480  -1.4643   1.9088   3.8186   6.5401  11.8257

          k = 0.0715 0.0554-0.0661 (   169 PWs)   bands (ev):

   -16.2504  -3.8581   0.6144   5.6384   8.3029  11.6670

          k = 0.0700-0.0901 0.0610 (   165 PWs)   bands (ev):

   -15.7209  -3.9609   0.2088   3.5577   8.0714  12.5031

          k = 0.0682-0.0717-0.0365 (   170 PWs)   bands (ev):

   -16.1704  -2.1737   1.8690   2.8476   5.1953  13.2598

     highest occupied level (ev):    13.2598

!    total energy              =     -63.40971340 Ry
     Harris-Foulkes estimate   =     -63.40971341 Ry
     estimated scf accuracy    <       0.00000003 Ry

     The total energy is the sum of the following terms:

     one-electron contribution =      -4.97288425 Ry
     hartree contribution      =      12.07884672 Ry
     xc contribution           =     -14.12829535 Ry
     ewald contribution        =     -56.38738052 Ry

     convergence has been achieved in  10 iterations

     Forces acting on atoms (cartesian axes, Ry/au):

     atom    1 type  1   force =     0.01687421    0.03421071    0.07207566
     atom    2 type  1   force =    -0.01687421   -0.03421071   -0.07207566

     Total force =     0.115326     Total SCF correction =     0.000534


     Computing stress (Cartesian axis) and pressure

          total   stress  (Ry/bohr**3)                   (kbar)     P=  858.30
   0.00768100  -0.00017666   0.00290680       1129.91    -25.99    427.61
  -0.00017666   0.00470593  -0.00201663        -25.99    692.27   -296.66
   0.00290680  -0.00201663   0.00511691        427.61   -296.66    752.72


     number of scf cycles    =  10
     number of bfgs steps    =   6

     enthalpy old            =     -62.9013389571 Ry
     enthalpy new            =     -62.9067756145 Ry

     CASE: enthalpy_new < enthalpy_old

[...]

          total   stress  (Ry/bohr**3)                   (kbar)     P=  999.52
   0.00679458  -0.00000205  -0.00000002        999.52     -0.30     -0.00
  -0.00000205   0.00679517   0.00000072         -0.30    999.60      0.11
  -0.00000002   0.00000072   0.00679400         -0.00      0.11    999.43


     number of scf cycles    =  22
     number of bfgs steps    =  18

     enthalpy old            =     -62.9446005777 Ry
     enthalpy new            =     -62.9446010251 Ry

     CASE: enthalpy_new < enthalpy_old

     new trust radius        =       0.0006307276 bohr
     new conv_thr            =       0.0000000100 Ry

     new unit-cell volume =     70.04276 a.u.^3 (    10.37927 Ang^3 )
     density =      0.31997 g/cm^3

CELL_PARAMETERS (alat=  1.00000000)
   3.530233327  -0.099912546   0.071424805
   1.143049281   3.890861924   0.820107145
   0.874299055   1.260218309   5.336014475

ATOMIC_POSITIONS (crystal)
O        0.040786088   0.100943197   0.003315093
O        0.577232912   0.316099803   0.629702907



     Writing output data file pwscf.save
     NEW-OLD atomic charge density approx. for the potential
     extrapolated charge   11.99863, renormalised to   12.00000

     total cpu time spent up to now is        8.9 secs

     per-process dynamical memory:     6.3 Mb

     Self-consistent Calculation

     iteration #  1     ecut=    20.00 Ry     beta=0.30
     Davidson diagonalization with overlap
     ethr =  1.00E-06,  avg # of iterations =  2.0

     Threshold (ethr) on eigenvalues was too large:
     Diagonalizing with lowered threshold

     Davidson diagonalization with overlap
     ethr =  2.24E-09,  avg # of iterations =  3.5

     total cpu time spent up to now is        8.9 secs

     total energy              =     -63.42074205 Ry
     Harris-Foulkes estimate   =     -63.42105389 Ry
     estimated scf accuracy    <       0.00000026 Ry

     iteration #  2     ecut=    20.00 Ry     beta=0.30
     Davidson diagonalization with overlap
     ethr =  2.18E-09,  avg # of iterations =  2.0

     total cpu time spent up to now is        8.9 secs

     total energy              =     -63.42074219 Ry
     Harris-Foulkes estimate   =     -63.42074219 Ry
     estimated scf accuracy    <       0.00000012 Ry

     iteration #  3     ecut=    20.00 Ry     beta=0.30
     Davidson diagonalization with overlap
     ethr =  9.95E-10,  avg # of iterations =  1.0

     total cpu time spent up to now is        8.9 secs

     total energy              =     -63.42074219 Ry
     Harris-Foulkes estimate   =     -63.42074219 Ry
     estimated scf accuracy    <       0.00000006 Ry

     iteration #  4     ecut=    20.00 Ry     beta=0.30
     Davidson diagonalization with overlap
     ethr =  4.95E-10,  avg # of iterations =  1.2

     total cpu time spent up to now is        8.9 secs

     End of self-consistent calculation

          k = 0.0714 0.0378 0.0262 (   162 PWs)   bands (ev):

   -15.6186  -0.3170   2.8715   5.3768   7.9787  12.5361

          k = 0.0739 0.0578-0.0726 (   169 PWs)   bands (ev):

   -14.8177  -3.7372   1.9310   6.9813   9.7646  13.3971

          k = 0.0669-0.0963 0.0586 (   165 PWs)   bands (ev):

   -14.2494  -2.5337   1.3299   4.6882   7.8443  12.8285

          k = 0.0695-0.0762-0.0402 (   170 PWs)   bands (ev):

   -14.7277  -1.4646   2.1761   4.8748   6.8910  13.2539

     highest occupied level (ev):    13.3971

!    total energy              =     -63.42074220 Ry
     Harris-Foulkes estimate   =     -63.42074220 Ry
     estimated scf accuracy    <          2.6E-09 Ry

     The total energy is the sum of the following terms:

     one-electron contribution =      -0.98827386 Ry
     hartree contribution      =      10.55554326 Ry
     xc contribution           =     -14.11791104 Ry
     ewald contribution        =     -58.87010056 Ry

     convergence has been achieved in   4 iterations

     Forces acting on atoms (cartesian axes, Ry/au):

     atom    1 type  1   force =     0.00002679    0.00001371   -0.00005391
     atom    2 type  1   force =    -0.00002679   -0.00001371    0.00005391

     Total force =     0.000087     Total SCF correction =     0.000125
     SCF correction compared to forces is large: reduce conv_thr to get better values


     Computing stress (Cartesian axis) and pressure

          total   stress  (Ry/bohr**3)                   (kbar)     P= 1000.60
   0.00680199   0.00000055   0.00000027       1000.61      0.08      0.04
   0.00000055   0.00680279   0.00000159          0.08   1000.72      0.23
   0.00000027   0.00000159   0.00680100          0.04      0.23   1000.46


     number of scf cycles    =  23
     number of bfgs steps    =  19

     enthalpy old            =     -62.9446010251 Ry
     enthalpy new            =     -62.9446011156 Ry

     CASE: enthalpy_new < enthalpy_old

     new trust radius        =       0.0001345914 bohr
     new conv_thr            =       0.0000000100 Ry

     new unit-cell volume =     70.04841 a.u.^3 (    10.38010 Ang^3 )
     density =      0.31995 g/cm^3

CELL_PARAMETERS (alat=  1.00000000)
   3.530250888  -0.099915228   0.071391173
   1.143087297   3.891025962   0.820080052
   0.874175227   1.260208192   5.336153089

ATOMIC_POSITIONS (crystal)
O        0.040806225   0.100970667   0.003304159
O        0.577212775   0.316072333   0.629713841



     Writing output data file pwscf.save
     NEW-OLD atomic charge density approx. for the potential
     extrapolated charge   12.00097, renormalised to   12.00000

     total cpu time spent up to now is        9.1 secs

     per-process dynamical memory:     6.3 Mb

     Self-consistent Calculation

     iteration #  1     ecut=    20.00 Ry     beta=0.30
     Davidson diagonalization with overlap
     ethr =  1.00E-06,  avg # of iterations =  2.0

     Threshold (ethr) on eigenvalues was too large:
     Diagonalizing with lowered threshold

     Davidson diagonalization with overlap
     ethr =  5.15E-10,  avg # of iterations =  1.5

     total cpu time spent up to now is        9.2 secs

     total energy              =     -63.42078050 Ry
     Harris-Foulkes estimate   =     -63.42056069 Ry
     estimated scf accuracy    <       0.00000006 Ry

     iteration #  2     ecut=    20.00 Ry     beta=0.30
     Davidson diagonalization with overlap
     ethr =  4.90E-10,  avg # of iterations =  3.2

     total cpu time spent up to now is        9.2 secs

     total energy              =     -63.42078057 Ry
     Harris-Foulkes estimate   =     -63.42078058 Ry
     estimated scf accuracy    <       0.00000001 Ry

     iteration #  3     ecut=    20.00 Ry     beta=0.30
     Davidson diagonalization with overlap
     ethr =  1.14E-10,  avg # of iterations =  1.5

     total cpu time spent up to now is        9.2 secs

     End of self-consistent calculation

          k = 0.0714 0.0378 0.0262 (   162 PWs)   bands (ev):

   -15.6201  -0.3189   2.8691   5.3759   7.9768  12.5346

          k = 0.0739 0.0578-0.0726 (   169 PWs)   bands (ev):

   -14.8196  -3.7378   1.9290   6.9793   9.7626  13.3955

          k = 0.0669-0.0963 0.0586 (   165 PWs)   bands (ev):

   -14.2514  -2.5345   1.3282   4.6863   7.8427  12.8274

          k = 0.0695-0.0762-0.0402 (   170 PWs)   bands (ev):

   -14.7294  -1.4664   2.1746   4.8729   6.8901  13.2519

     highest occupied level (ev):    13.3955

!    total energy              =     -63.42078057 Ry
     Harris-Foulkes estimate   =     -63.42078058 Ry
     estimated scf accuracy    <          6.7E-09 Ry

     The total energy is the sum of the following terms:

     one-electron contribution =      -0.99254637 Ry
     hartree contribution      =      10.55697465 Ry
     xc contribution           =     -14.11787148 Ry
     ewald contribution        =     -58.86733737 Ry

     convergence has been achieved in   3 iterations

     Forces acting on atoms (cartesian axes, Ry/au):

     atom    1 type  1   force =    -0.00004769    0.00000893   -0.00000350
     atom    2 type  1   force =     0.00004769   -0.00000893    0.00000350

     Total force =     0.000069     Total SCF correction =     0.000147
     SCF correction compared to forces is large: reduce conv_thr to get better values


     Computing stress (Cartesian axis) and pressure

          total   stress  (Ry/bohr**3)                   (kbar)     P= 1000.21
   0.00679945   0.00000033   0.00000031       1000.23      0.05      0.04
   0.00000033   0.00679884   0.00000005          0.05   1000.14      0.01
   0.00000031   0.00000005   0.00679955          0.04      0.01   1000.25


     bfgs converged in  24 scf cycles and  20 bfgs steps
     (criteria: energy <  1.0E-03 Ry, force <  1.0E-02Ry/Bohr, cell <  5.0E-01kbar)

     End of BFGS Geometry Optimization

     Final enthalpy =     -62.9446011092 Ry
Begin final coordinates
     new unit-cell volume =     70.04841 a.u.^3 (    10.38010 Ang^3 )
     density =      0.31995 g/cm^3

CELL_PARAMETERS (alat=  1.00000000)
   3.530250888  -0.099915228   0.071391173
   1.143087297   3.891025962   0.820080052
   0.874175227   1.260208192   5.336153089

ATOMIC_POSITIONS (crystal)
O        0.040806225   0.100970667   0.003304159
O        0.577212775   0.316072333   0.629713841
End final coordinates



     A final scf calculation at the relaxed structure.
     The G-vectors are recalculated for the final unit cell
     Results may differ from those at the preceding step.

     G-vector sticks info
     --------------------
     sticks:   dense  smooth     PW     G-vecs:    dense   smooth      PW
     Sum          89      89     29                  837      837     171



     bravais-lattice index     =            0
     lattice parameter (alat)  =       1.0000  a.u.
     unit-cell volume          =      70.0484 (a.u.)^3
     number of atoms/cell      =            2
     number of atomic types    =            1
     number of electrons       =        12.00
     number of Kohn-Sham states=            6
     kinetic-energy cutoff     =      20.0000  Ry
     charge density cutoff     =      80.0000  Ry
     convergence threshold     =      1.0E-08
     mixing beta               =       0.3000
     number of iterations used =            8  plain     mixing
     Exchange-correlation      =  SLA  PW   PBE  PBE ( 1  4  3  4 0 0)

     celldm(1)=   1.000000  celldm(2)=   0.000000  celldm(3)=   0.000000
     celldm(4)=   0.000000  celldm(5)=   0.000000  celldm(6)=   0.000000

     crystal axes: (cart. coord. in units of alat)
               a(1) = (   3.530251  -0.099915   0.071391 )
               a(2) = (   1.143087   3.891026   0.820080 )
               a(3) = (   0.874175   1.260208   5.336153 )

     reciprocal axes: (cart. coord. in units 2 pi/alat)
               b(1) = (  0.281657 -0.076844 -0.027994 )
               b(2) = (  0.008896  0.268037 -0.064758 )
               b(3) = ( -0.005135 -0.040165  0.197728 )


     PseudoPot. # 1 for O  read from file:
     /home/patrick/src/quantum-espresso/qe-6.1/pseudo/4.1.2-pseudos/O.pbe-van_ak.UPF
     MD5 check sum: 78c19812648e8988a0fe644b0f25305e
     Pseudo is Ultrasoft, Zval =  6.0
     Generated by new atomic code, or converted to UPF format
     Using radial grid of  737 points,  4 beta functions with:
                l(1) =   0
                l(2) =   0
                l(3) =   1
                l(4) =   1
     Q(r) pseudized with  8 coefficients,  rinner =    0.800   0.800   0.800


     atomic species   valence    mass     pseudopotential
        O              6.00     1.00000     O ( 1.00)

     No symmetry found



   Cartesian axes

     site n.     atom                  positions (alat units)
         1           O   tau(   1) = (   0.2623629   0.3929663   0.1033487  )
         2           O   tau(   2) = (   2.9494844   1.9657438   3.6606620  )

     number of k points=     4
                       cart. coord. in units 2pi/alat
        k(    1) = (   0.0713544   0.0377570   0.0262440), wk =   0.5000000
        k(    2) = (   0.0739221   0.0578394  -0.0726198), wk =   0.5000000
        k(    3) = (   0.0669065  -0.0962614   0.0586230), wk =   0.5000000
        k(    4) = (   0.0694742  -0.0761790  -0.0402408), wk =   0.5000000

     Dense  grid:      837 G-vectors     FFT dimensions: (  12,  12,  15)

     Estimated max dynamical RAM per process >       0.65MB

     Initial potential from superposition of free atoms

     starting charge   12.00000, renormalised to   12.00000
     Starting wfc are    8 randomized atomic wfcs

     Writing output data file pwscf.save

     total cpu time spent up to now is        9.4 secs

     per-process dynamical memory:     6.3 Mb

     Self-consistent Calculation

     iteration #  1     ecut=    20.00 Ry     beta=0.30
     Davidson diagonalization with overlap
     ethr =  1.00E-06,  avg # of iterations =  7.0

     total cpu time spent up to now is        9.5 secs

     total energy              =     -63.37362936 Ry
     Harris-Foulkes estimate   =     -63.40681113 Ry
     estimated scf accuracy    <       0.14140803 Ry

     iteration #  2     ecut=    20.00 Ry     beta=0.30
     Davidson diagonalization with overlap
     ethr =  1.18E-03,  avg # of iterations =  1.0

     total cpu time spent up to now is        9.5 secs

     total energy              =     -63.35316239 Ry
     Harris-Foulkes estimate   =     -63.37566172 Ry
     estimated scf accuracy    <       0.05798218 Ry

     iteration #  3     ecut=    20.00 Ry     beta=0.30
     Davidson diagonalization with overlap
     ethr =  4.83E-04,  avg # of iterations =  2.0

     total cpu time spent up to now is        9.5 secs

     total energy              =     -63.35787537 Ry
     Harris-Foulkes estimate   =     -63.35879185 Ry
     estimated scf accuracy    <       0.00205282 Ry

     iteration #  4     ecut=    20.00 Ry     beta=0.30
     Davidson diagonalization with overlap
     ethr =  1.71E-05,  avg # of iterations =  4.0

     total cpu time spent up to now is        9.5 secs

     total energy              =     -63.35868448 Ry
     Harris-Foulkes estimate   =     -63.35893823 Ry
     estimated scf accuracy    <       0.00048431 Ry

     iteration #  5     ecut=    20.00 Ry     beta=0.30
     Davidson diagonalization with overlap
     ethr =  4.04E-06,  avg # of iterations =  2.0

     total cpu time spent up to now is        9.5 secs

     total energy              =     -63.35869486 Ry
     Harris-Foulkes estimate   =     -63.35873057 Ry
     estimated scf accuracy    <       0.00006807 Ry

     iteration #  6     ecut=    20.00 Ry     beta=0.30
     Davidson diagonalization with overlap
     ethr =  5.67E-07,  avg # of iterations =  2.5

     total cpu time spent up to now is        9.5 secs

     total energy              =     -63.35870951 Ry
     Harris-Foulkes estimate   =     -63.35870883 Ry
     estimated scf accuracy    <       0.00000475 Ry

     iteration #  7     ecut=    20.00 Ry     beta=0.30
     Davidson diagonalization with overlap
     ethr =  3.95E-08,  avg # of iterations =  1.5

     total cpu time spent up to now is        9.5 secs

     total energy              =     -63.35870893 Ry
     Harris-Foulkes estimate   =     -63.35870972 Ry
     estimated scf accuracy    <       0.00000128 Ry

     iteration #  8     ecut=    20.00 Ry     beta=0.30
     Davidson diagonalization with overlap
     ethr =  1.07E-08,  avg # of iterations =  2.0

     total cpu time spent up to now is        9.5 secs

     total energy              =     -63.35870912 Ry
     Harris-Foulkes estimate   =     -63.35870913 Ry
     estimated scf accuracy    <       0.00000004 Ry

     iteration #  9     ecut=    20.00 Ry     beta=0.30
     Davidson diagonalization with overlap
     ethr =  3.48E-10,  avg # of iterations =  4.0

     total cpu time spent up to now is        9.5 secs

     End of self-consistent calculation

          k = 0.0714 0.0378 0.0262 (   111 PWs)   bands (ev):

   -15.7659  -0.4472   2.6853   5.3400   8.0070  12.6172

          k = 0.0739 0.0578-0.0726 (   103 PWs)   bands (ev):

   -14.9564  -3.7776   1.6881   7.3106   9.8929  13.4599

          k = 0.0669-0.0963 0.0586 (   109 PWs)   bands (ev):

   -14.4004  -2.6054   1.1541   4.6747   7.8426  12.9414

          k = 0.0695-0.0762-0.0402 (   108 PWs)   bands (ev):

   -14.8832  -1.5949   2.0458   4.8644   6.9787  13.3065

     highest occupied level (ev):    13.4599

!    total energy              =     -63.35870913 Ry
     Harris-Foulkes estimate   =     -63.35870913 Ry
     estimated scf accuracy    <          7.0E-09 Ry

     The total energy is the sum of the following terms:

     one-electron contribution =      -0.84332598 Ry
     hartree contribution      =      10.45793829 Ry
     xc contribution           =     -14.10598408 Ry
     ewald contribution        =     -58.86733736 Ry

     convergence has been achieved in   9 iterations

     Forces acting on atoms (cartesian axes, Ry/au):

     atom    1 type  1   force =     0.00250645   -0.01372157    0.09210345
     atom    2 type  1   force =    -0.00250645    0.01372157   -0.09210345

     Total force =     0.131739     Total SCF correction =     0.000327


     Computing stress (Cartesian axis) and pressure

          total   stress  (Ry/bohr**3)                   (kbar)     P=  195.34
   0.01120405  -0.00024990  -0.00028673       1648.17    -36.76    -42.18
  -0.00024990  -0.00582823   0.00222874        -36.76   -857.36    327.86
  -0.00028673   0.00222874  -0.00139205        -42.18    327.86   -204.78


     Writing output data file pwscf.save

     init_run     :      0.48s CPU      0.51s WALL (       2 calls)
     electrons    :      3.37s CPU      4.05s WALL (      25 calls)
     update_pot   :      1.72s CPU      1.89s WALL (      23 calls)
     forces       :      0.67s CPU      0.75s WALL (      25 calls)
     stress       :      1.34s CPU      1.67s WALL (      25 calls)

     Called by init_run:
     wfcinit      :      0.00s CPU      0.01s WALL (       2 calls)
     potinit      :      0.05s CPU      0.05s WALL (       2 calls)

     Called by electrons:
     c_bands      :      1.84s CPU      2.17s WALL (     261 calls)
     sum_band     :      0.60s CPU      0.71s WALL (     261 calls)
     v_of_rho     :      0.59s CPU      0.65s WALL (     281 calls)
     newd         :      0.38s CPU      0.49s WALL (     281 calls)
     mix_rho      :      0.02s CPU      0.05s WALL (     261 calls)

     Called by c_bands:
     init_us_2    :      0.13s CPU      0.16s WALL (    2296 calls)
     cegterg      :      1.74s CPU      2.04s WALL (    1044 calls)

     Called by sum_band:
     sum_band:bec :      0.00s CPU      0.00s WALL (    1044 calls)
     addusdens    :      0.34s CPU      0.41s WALL (     261 calls)

     Called by *egterg:
     h_psi        :      0.95s CPU      1.18s WALL (    3774 calls)
     s_psi        :      0.13s CPU      0.10s WALL (    3774 calls)
     g_psi        :      0.02s CPU      0.02s WALL (    2722 calls)
     cdiaghg      :      0.34s CPU      0.31s WALL (    3654 calls)

     Called by h_psi:
     h_psi:pot    :      0.92s CPU      1.17s WALL (    3774 calls)
     h_psi:calbec :      0.11s CPU      0.13s WALL (    3774 calls)
     vloc_psi     :      0.72s CPU      0.93s WALL (    3774 calls)
     add_vuspsi   :      0.08s CPU      0.10s WALL (    3774 calls)

     General routines
     calbec       :      0.17s CPU      0.18s WALL (    5318 calls)
     fft          :      0.09s CPU      0.08s WALL (    3866 calls)
     fftw         :      0.68s CPU      0.84s WALL (   41752 calls)
     davcio       :      0.00s CPU      0.00s WALL (       8 calls)

     Parallel routines
     fft_scatter  :      0.11s CPU      0.12s WALL (   45618 calls)

     PWSCF        :     8.12s CPU         9.57s WALL


   This run was terminated on:  21:13:21  25Jun2017

=------------------------------------------------------------------------------=
   JOB DONE.
=------------------------------------------------------------------------------=
