
                           ***********************       
                           *  WELCOME TO SIESTA  *       
                           ***********************       

reinit: Reading from standard input
reinit: Dumped input in INPUT_TMP.87656
************************** Dump of input data file ****************************
# TiO2 test
#
SystemName	test
SystemLabel	test-1x1
NumberOfSpecies  2
NumberOfAtoms    6
%block ChemicalSpeciesLabel
 1 8 O
 2 22 Ti
%endblock ChemicalSpeciesLabel
PAO.BasisSize  SZ
Diag.Divide-and-Conquer F
LatticeConstant     1.0 Ang
%block LatticeVectors
 3.24543096	0.00000000	0.00000000	
 1.21725585	3.64465841	0.00000000	
 0.84009162	0.46989215	5.84789066	
%endblock LatticeParameters
AtomicCoordinatesFormat    Fractional
%block AtomicCoordinatesAndAtomicSpecies
 0.00000000	0.00000000	0.00000000	2
 0.44320643	0.26949434	0.87263742	2
 0.16372782	0.62333804	0.22637642	1
 0.91740346	0.47054684	0.18375408	1
 0.24577631	0.13540385	0.34503473	1
 0.77780282	0.59891248	0.34639146	1
%endblock AtomicCoordinatesAndAtomicSpecies
kgrid_cutoff 15.0 Ang
Solution.Method       diagon
MeshCutoff             100 Ry
DM.NumberBroyden       4
DM.UseSaveDM           T
DM.MixingWeight        0.1         # New DM amount for next SCF cycle
DM.Tolerance           1.d-3       # Tolerance in maximum difference
                                   # between input and output DM
MaxSCFIterations       20
WriteCoorStep      .true.
WriteForces        .true.
XC.functional       GGA
XC.authors          PBE
MD.TypeOfRun         Broyden
MD.Variable-Cell      T
MD.Target-pressure    0.0 GPa
MD.Num-CG-steps	     30
MD.Max-Stress-Tol    2.0 GPa
MD.Broyden.Initial.Inverse.Jacobian 1.0
MD.Broyden.History.Steps 6
************************** End of input data file *****************************

reinit: -----------------------------------------------------------------------
reinit: System Name: test
reinit: -----------------------------------------------------------------------
reinit: System Label: test-1x1
reinit: -----------------------------------------------------------------------
Siesta Version: siesta-4.1--625
Architecture  : unknown
Compiler flags: gfortran -O2 -fPIC -ftree-vectorize
PP flags      : -DFC_HAVE_ABORT
Libraries     : libsiestaLAPACK.a libsiestaBLAS.a
SERIAL version

* Running in serial mode
>> Start of run:  25-MAY-2017  16:36:53

initatom: Reading input for the pseudopotentials and atomic orbitals ----------
Species number:   1 Atomic number:    8 Label: O
Species number:   2 Atomic number:   22 Label: Ti

Ground state valence configuration:   2s02  2p04
Reading pseudopotential information in formatted form from O.psf

Valence configuration for pseudopotential generation:
2s( 2.00) rc: 1.47
2p( 4.00) rc: 1.47
3d( 0.00) rc: 1.47
4f( 0.00) rc: 1.47
Ground state valence configuration:   4s02  3d02
Reading pseudopotential information in formatted form from Ti.psf

Valence configuration for pseudopotential generation:
4s( 2.00) rc: 2.71
4p( 0.00) rc: 2.71
3d( 2.00) rc: 2.45
4f( 0.00) rc: 2.45
For O, standard SIESTA heuristics set lmxkb to 2
 (one more than the basis l, including polarization orbitals).
Use PS.lmax or PS.KBprojectors blocks to override.
For Ti, standard SIESTA heuristics set lmxkb to 3
 (one more than the basis l, including polarization orbitals).
Use PS.lmax or PS.KBprojectors blocks to override.

<basis_specs>
===============================================================================
O                    Z=   8    Mass=  16.000        Charge= 0.17977+309
Lmxo=1 Lmxkb= 2    BasisType=split      Semic=F
L=0  Nsemic=0  Cnfigmx=2
          n=1  nzeta=1  polorb=0
            splnorm:   0.15000    
               vcte:    0.0000    
               rinn:    0.0000    
               qcoe:    0.0000    
               qyuk:    0.0000    
               qwid:   0.10000E-01
                rcs:    0.0000    
            lambdas:    1.0000    
L=1  Nsemic=0  Cnfigmx=2
          n=1  nzeta=1  polorb=0
            splnorm:   0.15000    
               vcte:    0.0000    
               rinn:    0.0000    
               qcoe:    0.0000    
               qyuk:    0.0000    
               qwid:   0.10000E-01
                rcs:    0.0000    
            lambdas:    1.0000    
-------------------------------------------------------------------------------
L=0  Nkbl=1  erefs: 0.17977+309
L=1  Nkbl=1  erefs: 0.17977+309
L=2  Nkbl=1  erefs: 0.17977+309
===============================================================================
</basis_specs>

atom: Called for O                     (Z =   8)

read_vps: Pseudopotential generation method:
read_vps: ATM3      Troullier-Martins                       
Total valence charge:    6.00000

read_vps: Pseudopotential includes a core correction:

xc_check: Exchange-correlation functional:
xc_check: GGA Perdew, Burke & Ernzerhof 1996
xc_check: WARNING: Pseudopotential generated with Unknown atomic XC code functional
V l=0 = -2*Zval/r beyond r=  1.4482
V l=1 = -2*Zval/r beyond r=  1.4482
V l=2 = -2*Zval/r beyond r=  1.4482
All V_l potentials equal beyond r=  1.4482
This should be close to max(r_c) in ps generation
All pots = -2*Zval/r beyond r=  1.4482

VLOCAL1: 99.0% of the norm of Vloc inside     20.696 Ry
VLOCAL1: 99.9% of the norm of Vloc inside     47.167 Ry
atom: Maximum radius for 4*pi*r*r*local-pseudopot. charge    1.74697
atom: Maximum radius for r*vlocal+2*Zval:    1.52250
GHOST: No ghost state for L =  0
GHOST: No ghost state for L =  1
GHOST: No ghost state for L =  2

KBgen: Kleinman-Bylander projectors: 
   l= 0   rc=  1.620715   el= -1.757696   Ekb=  4.880948   kbcos=  0.293490
   l= 1   rc=  1.600578   el= -0.664256   Ekb= -6.909822   kbcos= -0.499892
   l= 2   rc=  1.703827   el=  0.002031   Ekb= -1.539219   kbcos= -0.006778

KBgen: Total number of  Kleinman-Bylander projectors:    9
atom: -------------------------------------------------------------------------

atom: SANKEY-TYPE ORBITALS:

SPLIT: Orbitals with angular momentum L= 0

SPLIT: Basis orbitals for state 2s

SPLIT: PAO cut-off radius determined from an
SPLIT: energy shift=  0.020000 Ry

   izeta = 1
                 lambda =    1.000000
                     rc =    3.305093
                 energy =   -1.740009
                kinetic =    1.602198
    potential(screened) =   -3.342207
       potential(ionic) =  -11.287121

SPLIT: Orbitals with angular momentum L= 1

SPLIT: Basis orbitals for state 2p

SPLIT: PAO cut-off radius determined from an
SPLIT: energy shift=  0.020000 Ry

   izeta = 1
                 lambda =    1.000000
                     rc =    3.937239
                 energy =   -0.646301
                kinetic =    4.684247
    potential(screened) =   -5.330548
       potential(ionic) =  -13.029785
atom: Total number of Sankey-type orbitals:  4

atm_pop: Valence configuration (for local Pseudopot. screening):
 2s( 2.00)                                                            
 2p( 4.00)                                                            
Vna: chval, zval:    6.00000   6.00000

Vna:  Cut-off radius for the neutral-atom potential:   3.937239
comcore: Pseudo-core radius Rcore=  1.377587

atom: _________________________________________________________________________

<basis_specs>
===============================================================================
Ti                   Z=  22    Mass=  47.880        Charge= 0.17977+309
Lmxo=2 Lmxkb= 3    BasisType=split      Semic=F
L=0  Nsemic=0  Cnfigmx=4
          n=1  nzeta=1  polorb=0
            splnorm:   0.15000    
               vcte:    0.0000    
               rinn:    0.0000    
               qcoe:    0.0000    
               qyuk:    0.0000    
               qwid:   0.10000E-01
                rcs:    0.0000    
            lambdas:    1.0000    
L=1  Nsemic=0  Cnfigmx=4
L=2  Nsemic=0  Cnfigmx=3
          n=1  nzeta=1  polorb=0
            splnorm:   0.15000    
               vcte:    0.0000    
               rinn:    0.0000    
               qcoe:    0.0000    
               qyuk:    0.0000    
               qwid:   0.10000E-01
                rcs:    0.0000    
            lambdas:    1.0000    
-------------------------------------------------------------------------------
L=0  Nkbl=1  erefs: 0.17977+309
L=1  Nkbl=1  erefs: 0.17977+309
L=2  Nkbl=1  erefs: 0.17977+309
L=3  Nkbl=1  erefs: 0.17977+309
===============================================================================
</basis_specs>

atom: Called for Ti                    (Z =  22)

read_vps: Pseudopotential generation method:
read_vps: ATM3      Troullier-Martins                       
Total valence charge:    4.00000

read_vps: Pseudopotential includes a core correction:

xc_check: Exchange-correlation functional:
xc_check: GGA Perdew, Burke & Ernzerhof 1996
xc_check: WARNING: Pseudopotential generated with Unknown atomic XC code functional
V l=0 = -2*Zval/r beyond r=  3.2266
V l=1 = -2*Zval/r beyond r=  3.2266
V l=2 = -2*Zval/r beyond r=  3.2266
V l=3 = -2*Zval/r beyond r=  3.2266
All V_l potentials equal beyond r=  2.6749
This should be close to max(r_c) in ps generation
All pots = -2*Zval/r beyond r=  3.2266

VLOCAL1: 99.0% of the norm of Vloc inside      6.067 Ry
VLOCAL1: 99.9% of the norm of Vloc inside     13.826 Ry
atom: Maximum radius for 4*pi*r*r*local-pseudopot. charge    3.18650
atom: Maximum radius for r*vlocal+2*Zval:    2.77713
GHOST: No ghost state for L =  0
GHOST: No ghost state for L =  1
GHOST: No ghost state for L =  2
GHOST: No ghost state for L =  3

KBgen: Kleinman-Bylander projectors: 
   l= 0   rc=  3.656209   el= -0.325100   Ekb=  2.704161   kbcos=  0.283955
   l= 1   rc=  3.748769   el= -0.108822   Ekb=  1.406241   kbcos=  0.273406
   l= 2   rc=  3.267166   el= -0.324546   Ekb= -7.701284   kbcos= -0.636873
   l= 3   rc=  3.990551   el=  0.003060   Ekb= -1.295170   kbcos= -0.013833

KBgen: Total number of  Kleinman-Bylander projectors:   16
atom: -------------------------------------------------------------------------

atom: SANKEY-TYPE ORBITALS:

SPLIT: Orbitals with angular momentum L= 0

SPLIT: Basis orbitals for state 4s

SPLIT: PAO cut-off radius determined from an
SPLIT: energy shift=  0.020000 Ry

   izeta = 1
                 lambda =    1.000000
                     rc =    7.091818
                 energy =   -0.305873
                kinetic =    0.264040
    potential(screened) =   -0.569913
       potential(ionic) =   -2.467411

SPLIT: Orbitals with angular momentum L= 2

SPLIT: Basis orbitals for state 3d

SPLIT: PAO cut-off radius determined from an
SPLIT: energy shift=  0.020000 Ry

   izeta = 1
                 lambda =    1.000000
                     rc =    4.636377
                 energy =   -0.305390
                kinetic =    5.563773
    potential(screened) =   -5.869163
       potential(ionic) =   -8.409419
atom: Total number of Sankey-type orbitals:  6

atm_pop: Valence configuration (for local Pseudopot. screening):
 4s( 2.00)                                                            
 4p( 0.00)                                                            
 3d( 2.00)                                                            
Vna: chval, zval:    4.00000   4.00000

Vna:  Cut-off radius for the neutral-atom potential:   7.091818
comcore: Pseudo-core radius Rcore=  4.578782

atom: _________________________________________________________________________

prinput: Basis input ----------------------------------------------------------

PAO.BasisType split     

%block ChemicalSpeciesLabel
    1    8 O                       # Species index, atomic number, species label
    2   22 Ti                      # Species index, atomic number, species label
%endblock ChemicalSpeciesLabel

%block PAO.Basis                 # Define Basis set
O                     2                    # Species label, number of l-shells
 n=2   0   1                         # n, l, Nzeta 
   3.305   
   1.000   
 n=2   1   1                         # n, l, Nzeta 
   3.937   
   1.000   
Ti                    2                    # Species label, number of l-shells
 n=4   0   1                         # n, l, Nzeta 
   7.092   
   1.000   
 n=3   2   1                         # n, l, Nzeta 
   4.636   
   1.000   
%endblock PAO.Basis

prinput: ----------------------------------------------------------------------

coor:   Atomic-coordinates input format  =     Fractional

siesta: Atomic coordinates (Bohr) and species
siesta:      0.00000   0.00000   0.00000  2        1
siesta:      4.72344   2.63099   9.64344  2        2
siesta:      2.79737   4.49420   2.50167  1        3
siesta:      7.00052   3.40402   2.03065  1        4
siesta:      2.36657   1.23896   3.81295  1        5
siesta:      6.69783   4.43254   3.82794  1        6

siesta: System type = bulk      

initatomlists: Number of atoms, orbitals, and projectors:      6    28    68

siesta: ******************** Simulation parameters ****************************
siesta:
siesta: The following are some of the parameters of the simulation.
siesta: A complete list of the parameters used, including default values,
siesta: can be found in file out.fdf
siesta:
redata: Spin configuration                          = none
redata: Number of spin components                   = 1
redata: Time-Reversal Symmetry                      = T
redata: Spin-spiral                                 = F
redata: Long output                                 =   F
redata: Number of Atomic Species                    =        2
redata: Charge density info will appear in .RHO file
redata: Write Mulliken Pop.                         = NO
redata: Mesh Cutoff                                 =   100.0000 Ry
redata: Net charge of the system                    =     0.0000 |e|
redata: Min. number of SCF Iter                     =        0
redata: Max. number of SCF Iter                     =       20
redata: SCF mix quantity                            = Hamiltonian
redata: Mix DM or H after convergence               =   F
redata: Recompute H after scf cycle                 =   F
redata: Mix DM in first SCF step                    =   T
redata: Write Pulay info on disk                    =   F
redata: New DM Mixing Weight                        =     0.1000
redata: New DM Occupancy tolerance                  = 0.000000000001
redata: No kicks to SCF
redata: DM Mixing Weight for Kicks                  =     0.5000
redata: Require Harris convergence for SCF          =   F
redata: Harris energy tolerance for SCF             =     0.000100 eV
redata: Require DM convergence for SCF              =   T
redata: DM tolerance for SCF                        =     0.0010
redata: Require EDM convergence for SCF             =   F
redata: EDM tolerance for SCF                       =     0.001000 eV
redata: Require H convergence for SCF               =   T
redata: Hamiltonian tolerance for SCF               =     0.001000 eV
redata: Require (free) Energy convergence for SCF   =   F
redata: (free) Energy tolerance for SCF             =     0.000100 eV
redata: Using Saved Data (generic)                  =   F
redata: Use continuation files for DM               =   T
redata: Neglect nonoverlap interactions             =   F
redata: Method of Calculation                       = Diagonalization
redata: Divide and Conquer                          =   F
redata: Electronic Temperature                      =   299.9869 K
redata: Fix the spin of the system                  =   F
redata: Dynamics option                             = Broyden coord. optimization
redata: Variable cell                               =   T
redata: Maximum number of CG moves                  =       30
redata: Force tolerance                             =     0.0400 eV/Ang
redata: Stress tolerance                            =     2.0000 GPa
mix.SCF: Broyden mixing                          = Broyden
mix.SCF:    History steps                        = 3
mix.SCF:    Jacobian weight                      =     0.100000
mix.SCF:    Weight prime                         =     0.100000
redata: ***********************************************************************

%block SCF.Mixers
  Broyden                 
%endblock SCF.Mixers

%block SCF.Mixer.Broyden
  # Mixing method
  method broyden

  # Mixing options
  weight 0.1000
  weight.linear 0.1000
  history 4
  restart 0
  restart.save 1

  # Continuation options
%endblock SCF.Mixer.Broyden

DM_history_depth set to one: no extrapolation allowed by default for geometry relaxation
Size of DM history Fstack: 1
Total number of electrons:    32.000000
Total ionic charge:    32.000000
 Kpoints in:          240 . Kpoints trimmed:          240

siesta: k-grid: Number of k-points =   240
siesta: k-grid: Cutoff (effective) =    15.370 Ang
siesta: k-grid: Supercell and displacements
siesta: k-grid:   10   0   0      0.500
siesta: k-grid:    0   8   0      0.500
siesta: k-grid:    0   0   6      0.500

superc: Internal auxiliary supercell:     7 x     5 x     5  =     175
superc: Number of atoms, orbitals, and projectors:   1050   4900  11900


                     ====================================
                        Begin Broyden opt. move =      0
                     ====================================

outcoor: Atomic coordinates (fractional):                   
    0.00000000    0.00000000    0.00000000   2       1  Ti
    0.44320643    0.26949434    0.87263742   2       2  Ti
    0.16372782    0.62333804    0.22637642   1       3  O
    0.91740346    0.47054684    0.18375408   1       4  O
    0.24577631    0.13540385    0.34503473   1       5  O
    0.77780282    0.59891248    0.34639146   1       6  O

superc: Internal auxiliary supercell:     7 x     5 x     5  =     175
superc: Number of atoms, orbitals, and projectors:   1050   4900  11900

outcell: Unit cell vectors (Ang):
        3.245431    0.000000    0.000000
        1.217256    3.644658    0.000000
        0.840092    0.469892    5.847891

outcell: Cell vector modules (Ang)   :    3.245431    3.842557    5.926582
outcell: Cell angles (23,13,12) (deg):     83.1018     81.8509     71.5315
outcell: Cell volume (Ang**3)        :     69.1717
<dSpData1D:S at geom step 0
  <sparsity:sparsity for geom step 0
    nrows_g=28 nrows=28 sparsity=19.5255 nnzs=15308, refcount: 7>
  <dData1D:(new from dSpData1D) n=15308, refcount: 1>
refcount: 1>
New_DM. Step:     1
Initializing Density Matrix...
Attempting to read DM from file... Failed...
DM after filling with atomic data:
<dSpData2D:(DM initialized from atoms)
  <sparsity:sparsity for geom step 0
    nrows_g=28 nrows=28 sparsity=19.5255 nnzs=15308, refcount: 8>
  <dData2D:(DMatomic) n=15308 m=1, refcount: 1>
refcount: 1>
No. of atoms with KB's overlaping orbs in proc 0. Max # of overlaps:      82     146
New grid distribution:   1
           1       1:   10    1:   12    1:   18

InitMesh: MESH =    20 x    24 x    36 =       17280
InitMesh: (bp) =    10 x    12 x    18 =        2160
InitMesh: Mesh cutoff (required, used) =   100.000   104.739 Ry
ExtMesh (bp) on 0 =    62 x    64 x    66 =      261888
PhiOnMesh: Number of (b)points on node 0 =                 2160
PhiOnMesh: nlist on node 0 =                57899

stepf: Fermi-Dirac step function

siesta: Program's energy decomposition (eV):
siesta: Ebs     =      -650.618278
siesta: Eions   =      2709.615354
siesta: Ena     =       253.919312
siesta: Ekin    =      1666.242742
siesta: Enl     =      -659.997859
siesta: Eso     =         0.000000
siesta: Eldau   =         0.000000
siesta: DEna    =        15.498683
siesta: DUscf   =        92.933797
siesta: DUext   =         0.000000
siesta: Exc     =      -565.623435
siesta: eta*DQ  =         0.000000
siesta: Emadel  =         0.000000
siesta: Emeta   =         0.000000
siesta: Emolmec =         0.000000
siesta: Ekinion =         0.000000
siesta: Eharris =     -1718.158485
siesta: Etot    =     -1906.642114
siesta: FreeEng =     -1906.650587

        iscf     Eharris(eV)        E_KS(eV)     FreeEng(eV)     dDmax    Ef(eV) dHmax(eV)
   scf:    1    -1718.158485    -1906.642114    -1906.650587  1.711227 -4.820315 29.836565
timer: Routine,Calls,Time,% = IterSCF        1       2.060  48.31
   scf:    2    -1938.632770    -1959.116456    -1959.126687  0.709937 -4.108659 19.557035
   scf:    3    -1960.266000    -1967.535504    -1967.548465  0.538660 -3.887042  9.296695
   scf:    4    -1940.995186    -1965.453825    -1965.467730  0.904938 -3.406326 13.024468
   scf:    5    -1957.362407    -1961.621194    -1961.634652  0.076397 -3.368079 15.253744
   scf:    6    -1958.052619    -1968.424931    -1968.439711  1.089598 -3.638133 10.953934
   scf:    7    -1972.542130    -1971.218008    -1971.234433  0.225452 -3.331953  5.834880
   scf:    8    -1974.148404    -1973.799299    -1973.816348  0.359308 -3.099639  1.221453
   scf:    9    -1973.889589    -1973.901405    -1973.918133  0.049214 -3.102769  0.775128
   scf:   10    -1973.721609    -1973.869566    -1973.885811  0.074045 -2.941918  1.260155
   scf:   11    -1973.994907    -1973.969657    -1973.985195  0.075385 -2.864397  0.649551
   scf:   12    -1973.986627    -1973.985582    -1974.000936  0.035419 -2.851085  0.259330
   scf:   13    -1973.991362    -1973.989065    -1974.004385  0.007969 -2.852328  0.129474
   scf:   14    -1973.991097    -1973.990380    -1974.005688  0.004192 -2.854445  0.076839
   scf:   15    -1973.991425    -1973.991016    -1974.006412  0.005790 -2.860237  0.031873
   scf:   16    -1973.991115    -1973.991072    -1974.006476  0.001375 -2.860412  0.025056
   scf:   17    -1973.991230    -1973.991164    -1974.006570  0.001521 -2.860380  0.025079
   scf:   18    -1973.991253    -1973.991221    -1974.006620  0.000759 -2.859379  0.008047
   scf:   19    -1973.991255    -1973.991238    -1974.006631  0.000331 -2.859059  0.005885
   scf:   20    -1973.991267    -1973.991253    -1974.006638  0.000336 -2.858696  0.005224
:!: SCF did not converge in maximum number of steps.

Using DM_out to compute the final energy and forces
No. of atoms with KB's overlaping orbs in proc 0. Max # of overlaps:      82     146

siesta: E_KS(eV) =            -1973.9913

siesta: E_KS - E_eggbox =     -1973.9913

siesta: Atomic forces (eV/Ang):
     1   -1.496873    4.524535   -2.410519
     2    1.791020   -0.983966   -1.177215
     3   40.501142   15.252179   -9.875076
     4  -21.994494  -29.888962  -38.723907
     5    4.898792  -13.978177    0.533917
     6  -26.672763   19.287298   48.475716
----------------------------------------
   Tot   -2.973175   -5.787094   -3.177083
----------------------------------------
   Max   48.475716
   Res   21.774381    sqrt( Sum f_i^2 / 3N )
----------------------------------------
   Max   48.475716    constrained

Stress-tensor-Voigt (kbar):    -1215.64     -998.51    -1071.21     -132.82     -242.53      315.04
(Free)E + p*V (eV/cell)    -1926.7268
Target enthalpy (eV/cell)    -1974.0066

siesta: Stress tensor (static) (eV/Ang**3):
        -0.758737   -0.082901    0.196621
        -0.082896   -0.623215   -0.151348
         0.196630   -0.151373   -0.668592

siesta: Pressure (static):       1095.12301076  kBar

siesta: Stress tensor (total) (eV/Ang**3):
        -0.758737   -0.082901    0.196621
        -0.082896   -0.623215   -0.151348
         0.196630   -0.151373   -0.668592

siesta: Pressure (total):       1095.12301076  kBar

Broyden_optim: max_history for broyden:   6
Broyden_optim: cycle on maxit: T
Broyden_optim: initial inverse jacobian:   1.0000

Broyden_optim: No of elements:     24

Broyden_optim: No target stress found, assuming hydrostatic MD.TargetPressure.

Broyden_optim: Target stress (kBar)
Broyden_optim:        -0.000       0.000       0.000
Broyden_optim:         0.000      -0.000       0.000
Broyden_optim:         0.000       0.000      -0.000

                     ====================================
                        Begin Broyden opt. move =      1
                     ====================================

outcoor: Atomic coordinates (fractional):                   
   -0.00949271    0.02044641   -0.00775105   2       1  Ti
    0.45456454    0.26753437    0.86921426   2       2  Ti
    0.42057377    0.76954500    0.21667476   1       3  O
    0.77792105    0.28138108    0.03200457   1       4  O
    0.27684296    0.07270181    0.34542702   1       5  O
    0.60865225    0.65164165    0.50468084   1       6  O
 Kpoints in:          180 . Kpoints trimmed:          180

siesta: k-grid: Number of k-points =   180
siesta: k-grid: Cutoff (effective) =    15.236 Ang
siesta: k-grid: Supercell and displacements
siesta: k-grid:    9   0   0      0.000
siesta: k-grid:    0   8   0      0.500
siesta: k-grid:    0   0   5      0.000

superc: Internal auxiliary supercell:     7 x     5 x     5  =     175
superc: Number of atoms, orbitals, and projectors:   1050   4900  11900

outcell: Unit cell vectors (Ang):
        3.385657    0.015321   -0.036339
        1.287056    3.779753    0.017785
        0.813129    0.540940    6.065186

outcell: Cell vector modules (Ang)   :    3.385887    3.992914    6.143312
outcell: Cell angles (23,13,12) (deg):     82.5065     82.9836     70.9406
outcell: Cell volume (Ang**3)        :     77.5503
<dSpData1D:S at geom step 1
  <sparsity:sparsity for geom step 1
    nrows_g=28 nrows=28 sparsity=17.9005 nnzs=14034, refcount: 7>
  <dData1D:(new from dSpData1D) n=14034, refcount: 1>
refcount: 1>
New_DM. Step:     2
Re-using DM from previous geometries...
N DMs in history: 1
 DM extrapolation coefficients: 
1   1.00000
New DM after history re-use:
<dSpData2D:SpM extrapolated using coords
  <sparsity:sparsity for geom step 1
    nrows_g=28 nrows=28 sparsity=17.9005 nnzs=14034, refcount: 8>
  <dData2D:(temp array for extrapolation) n=14034 m=1, refcount: 1>
refcount: 1>
Note: For starting DM, Qtot, Tr[D*S] =         32.00000000         32.30261570
No. of atoms with KB's overlaping orbs in proc 0. Max # of overlaps:      74     142
New grid distribution:   1
           1       1:   10    1:   12    1:   20

InitMesh: MESH =    20 x    24 x    40 =       19200
InitMesh: (bp) =    10 x    12 x    20 =        2400
InitMesh: Mesh cutoff (required, used) =   100.000   108.725 Ry
ExtMesh (bp) on 0 =    58 x    60 x    72 =      250560
PhiOnMesh: Number of (b)points on node 0 =                 2400
PhiOnMesh: nlist on node 0 =                57365

        iscf     Eharris(eV)        E_KS(eV)     FreeEng(eV)     dDmax    Ef(eV) dHmax(eV)
   scf:    1    -1865.097849    -1937.273435    -1937.284027  0.896941 -2.231898 30.545611
   scf:    2    -1923.488498    -1967.530978    -1967.542841  1.298298 -2.592146 15.312508
   scf:    3    -1975.360237    -1979.718890    -1979.723163  0.456772 -2.819687  7.094101
   scf:    4    -1983.078237    -1982.195394    -1982.200935  0.150377 -3.024561  3.820561
   scf:    5    -1983.339737    -1982.839740    -1982.849924  0.047552 -3.190086  2.421680
   scf:    6    -1983.978009    -1983.570818    -1983.588706  0.095487 -3.536562  1.018711
   scf:    7    -1982.790551    -1983.460037    -1983.471553  0.085934 -3.641100  2.053309
   scf:    8    -1983.474716    -1983.733468    -1983.752388  0.099561 -3.709069  0.964989
   scf:    9    -1983.819977    -1983.793202    -1983.810984  0.020287 -3.735988  0.568639
   scf:   10    -1983.790857    -1983.800770    -1983.819751  0.027287 -3.750911  0.442566
   scf:   11    -1983.807407    -1983.815086    -1983.833108  0.019460 -3.747282  0.154784
   scf:   12    -1983.816928    -1983.816365    -1983.834584  0.003669 -3.747363  0.066088
   scf:   13    -1983.817543    -1983.816981    -1983.835188  0.001934 -3.746436  0.051376
   scf:   14    -1983.818411    -1983.817708    -1983.835834  0.003259 -3.745531  0.026175
   scf:   15    -1983.817976    -1983.817848    -1983.835975  0.001336 -3.745545  0.016343
   scf:   16    -1983.817967    -1983.817913    -1983.836026  0.000809 -3.745611  0.018370
   scf:   17    -1983.818158    -1983.818038    -1983.836155  0.002297 -3.745795  0.005792
   scf:   18    -1983.818098    -1983.818070    -1983.836178  0.000671 -3.745846  0.008119
   scf:   19    -1983.818099    -1983.818084    -1983.836191  0.000432 -3.745853  0.006681
   scf:   20    -1983.818105    -1983.818094    -1983.836201  0.000414 -3.745838  0.005072
:!: SCF did not converge in maximum number of steps.

Using DM_out to compute the final energy and forces
No. of atoms with KB's overlaping orbs in proc 0. Max # of overlaps:      74     142

siesta: E_KS(eV) =            -1983.8181

siesta: Atomic forces (eV/Ang):
     1    5.459423  -24.059226   -2.351746
     2  -15.739055    1.406068  -17.875639
     3   -0.905642   -1.257934   -0.789840
     4   10.056782   25.666752   14.814466
     5    0.475109    4.421631    5.119821
     6   -2.848395    4.477131    0.299580
----------------------------------------
   Tot   -3.501778   10.654422   -0.783357
----------------------------------------
   Max   25.666752
   Res   11.155638    sqrt( Sum f_i^2 / 3N )
----------------------------------------
   Max   25.666752    constrained

Stress-tensor-Voigt (kbar):     -630.50     -485.34     -256.88      110.25     -210.74     -348.76
(Free)E + p*V (eV/cell)    -1961.6884
Target enthalpy (eV/cell)    -1983.8362

siesta: Stress tensor (static) (eV/Ang**3):
        -0.393525    0.068808   -0.217709
         0.068814   -0.302920   -0.131496
        -0.217676   -0.131530   -0.160332

siesta: Pressure (static):        457.57436157  kBar

siesta: Stress tensor (total) (eV/Ang**3):
        -0.393525    0.068808   -0.217709
         0.068814   -0.302920   -0.131496
        -0.217676   -0.131530   -0.160332

siesta: Pressure (total):        457.57436157  kBar

                     ====================================
                        Begin Broyden opt. move =      2
                     ====================================

outcoor: Atomic coordinates (fractional):                   
    0.01570552   -0.06246720   -0.01723307   2       1  Ti
    0.38171919    0.25246296    0.81920499   2       2  Ti
    0.41634177    0.76368414    0.21409767   1       3  O
    0.82485984    0.39023735    0.07846740   1       4  O
    0.27890617    0.08990138    0.35947240   1       5  O
    0.59538071    0.66473917    0.50547910   1       6  O
 Kpoints in:          180 . Kpoints trimmed:          180

siesta: k-grid: Number of k-points =   180
siesta: k-grid: Cutoff (effective) =    15.495 Ang
siesta: k-grid: Supercell and displacements
siesta: k-grid:    9   0   0      0.000
siesta: k-grid:    0   8   0      0.500
siesta: k-grid:    0   0   5      0.000

superc: Internal auxiliary supercell:     7 x     5 x     5  =     175
superc: Number of atoms, orbitals, and projectors:   1050   4900  11900

outcell: Unit cell vectors (Ang):
        3.443429    0.005219   -0.004381
        1.297380    3.825905    0.051454
        0.884206    0.579553    6.118667

outcell: Cell vector modules (Ang)   :    3.443436    4.040222    6.209331
outcell: Cell angles (23,13,12) (deg):     81.5665     81.8777     71.1837
outcell: Cell volume (Ang**3)        :     80.4764
<dSpData1D:S at geom step 2
  <sparsity:sparsity for geom step 2
    nrows_g=28 nrows=28 sparsity=17.6480 nnzs=13836, refcount: 7>
  <dData1D:(new from dSpData1D) n=13836, refcount: 1>
refcount: 1>
New_DM. Step:     3
Re-using DM from previous geometries...
N DMs in history: 1
 DM extrapolation coefficients: 
1   1.00000
New DM after history re-use:
<dSpData2D:SpM extrapolated using coords
  <sparsity:sparsity for geom step 2
    nrows_g=28 nrows=28 sparsity=17.6480 nnzs=13836, refcount: 8>
  <dData2D:(temp array for extrapolation) n=13836 m=1, refcount: 1>
refcount: 1>
Note: For starting DM, Qtot, Tr[D*S] =         32.00000000         31.16194691
No. of atoms with KB's overlaping orbs in proc 0. Max # of overlaps:      72     136
New grid distribution:   1
           1       1:   10    1:   12    1:   20

InitMesh: MESH =    20 x    24 x    40 =       19200
InitMesh: (bp) =    10 x    12 x    20 =        2400
InitMesh: Mesh cutoff (required, used) =   100.000   105.119 Ry
ExtMesh (bp) on 0 =    58 x    60 x    72 =      250560
PhiOnMesh: Number of (b)points on node 0 =                 2400
PhiOnMesh: nlist on node 0 =                55243

        iscf     Eharris(eV)        E_KS(eV)     FreeEng(eV)     dDmax    Ef(eV) dHmax(eV)
   scf:    1    -1245.232557    -1751.920805    -1751.924905  1.589289 -3.529427 57.774001
   scf:    2    -1497.248886    -1900.344325    -1900.353390  1.827506 -2.378792 30.413146
   scf:    3    -2014.736543    -1981.097636    -1981.111025  0.669661 -3.008215 19.628075
   scf:    4    -1934.305691    -1978.327313    -1978.339086  0.647575 -3.498433 14.055050
   scf:    5    -1968.099614    -1993.576901    -1993.590261  0.501333 -3.651847  8.756465
   scf:    6    -1995.484421    -1998.345226    -1998.359763  0.282058 -3.571649  3.630005
   scf:    7    -1998.785790    -1998.814015    -1998.828809  0.098881 -3.633195  1.581806
   scf:    8    -1998.924905    -1998.872183    -1998.887336  0.011522 -3.647847  1.288137
   scf:    9    -1999.028967    -1998.962715    -1998.978757  0.038613 -3.710094  0.336453
   scf:   10    -1998.974439    -1998.971038    -1998.987171  0.008625 -3.728942  0.083606
   scf:   11    -1998.973773    -1998.972445    -1998.988550  0.002974 -3.735295  0.071190
   scf:   12    -1998.977334    -1998.975166    -1998.991196  0.009715 -3.757854  0.044900
   scf:   13    -1998.975904    -1998.975600    -1998.991622  0.002236 -3.762898  0.026962
   scf:   14    -1998.976270    -1998.975937    -1998.991950  0.002200 -3.767939  0.021430
   scf:   15    -1998.976370    -1998.976151    -1998.992164  0.001916 -3.769912  0.017637
   scf:   16    -1998.976615    -1998.976382    -1998.992397  0.003031 -3.770401  0.011593
   scf:   17    -1998.976677    -1998.976525    -1998.992535  0.003009 -3.771190  0.008396
   scf:   18    -1998.976614    -1998.976569    -1998.992574  0.000911 -3.771386  0.006588
   scf:   19    -1998.976607    -1998.976588    -1998.992591  0.000489 -3.771584  0.005529
   scf:   20    -1998.976628    -1998.976608    -1998.992607  0.000572 -3.771661  0.004298
:!: SCF did not converge in maximum number of steps.

Using DM_out to compute the final energy and forces
No. of atoms with KB's overlaping orbs in proc 0. Max # of overlaps:      72     136

siesta: E_KS(eV) =            -1998.9766

siesta: Atomic forces (eV/Ang):
     1   -1.338232   -1.444210    2.918849
     2   -0.227476    1.836021   -1.951098
     3   -2.958138    0.882603    0.699803
     4    2.405209   -4.511350   -6.227150
     5    3.169114   -4.543090   -0.675931
     6    2.753054    1.493386   -0.861341
----------------------------------------
   Tot    3.803531   -6.286641   -6.096868
----------------------------------------
   Max    6.227150
   Res    2.751273    sqrt( Sum f_i^2 / 3N )
----------------------------------------
   Max    6.227150    constrained

Stress-tensor-Voigt (kbar):      143.06       93.36      151.64       52.41      -66.44      -65.56
(Free)E + p*V (eV/cell)    -2005.4900
Target enthalpy (eV/cell)    -1998.9926

siesta: Stress tensor (static) (eV/Ang**3):
         0.089291    0.032644   -0.040924
         0.032713    0.058271   -0.041426
        -0.040919   -0.041465    0.094648

siesta: Pressure (static):       -129.35554688  kBar

siesta: Stress tensor (total) (eV/Ang**3):
         0.089291    0.032644   -0.040924
         0.032713    0.058271   -0.041426
        -0.040919   -0.041465    0.094648

siesta: Pressure (total):       -129.35554688  kBar

                     ====================================
                        Begin Broyden opt. move =      3
                     ====================================

outcoor: Atomic coordinates (fractional):                   
    0.00849787   -0.07326789   -0.00940674   2       1  Ti
    0.37850654    0.26010695    0.81224615   2       2  Ti
    0.39891552    0.76301482    0.21514031   1       3  O
    0.84017886    0.37555725    0.06001286   1       4  O
    0.29747796    0.07421694    0.35781875   1       5  O
    0.61116926    0.67629032    0.50449545   1       6  O
 Kpoints in:          180 . Kpoints trimmed:          180

siesta: k-grid: Number of k-points =   180
siesta: k-grid: Cutoff (effective) =    15.427 Ang
siesta: k-grid: Supercell and displacements
siesta: k-grid:    9   0   0      0.000
siesta: k-grid:    0   8   0      0.500
siesta: k-grid:    0   0   5      0.000

superc: Internal auxiliary supercell:     7 x     5 x     5  =     175
superc: Number of atoms, orbitals, and projectors:   1050   4900  11900

outcell: Unit cell vectors (Ang):
        3.428241   -0.001160    0.004114
        1.284520    3.812581    0.063916
        0.894657    0.591376    6.091269

outcell: Cell vector modules (Ang)   :    3.428244    4.023661    6.184957
outcell: Cell angles (23,13,12) (deg):     81.2327     81.6164     71.4012
outcell: Cell volume (Ang**3)        :     79.4841
<dSpData1D:S at geom step 3
  <sparsity:sparsity for geom step 3
    nrows_g=28 nrows=28 sparsity=17.9082 nnzs=14040, refcount: 7>
  <dData1D:(new from dSpData1D) n=14040, refcount: 1>
refcount: 1>
New_DM. Step:     4
Re-using DM from previous geometries...
N DMs in history: 1
 DM extrapolation coefficients: 
1   1.00000
New DM after history re-use:
<dSpData2D:SpM extrapolated using coords
  <sparsity:sparsity for geom step 3
    nrows_g=28 nrows=28 sparsity=17.9082 nnzs=14040, refcount: 8>
  <dData2D:(temp array for extrapolation) n=14040 m=1, refcount: 1>
refcount: 1>
Note: For starting DM, Qtot, Tr[D*S] =         32.00000000         32.07737888
No. of atoms with KB's overlaping orbs in proc 0. Max # of overlaps:      71     139
New grid distribution:   1
           1       1:   10    1:   12    1:   20

InitMesh: MESH =    20 x    24 x    40 =       19200
InitMesh: (bp) =    10 x    12 x    20 =        2400
InitMesh: Mesh cutoff (required, used) =   100.000   105.854 Ry
ExtMesh (bp) on 0 =    58 x    60 x    72 =      250560
PhiOnMesh: Number of (b)points on node 0 =                 2400
PhiOnMesh: nlist on node 0 =                55861

        iscf     Eharris(eV)        E_KS(eV)     FreeEng(eV)     dDmax    Ef(eV) dHmax(eV)
   scf:    1    -1991.454475    -1997.685633    -1997.701768  0.248732 -3.533906  5.163748
   scf:    2    -1992.410910    -1998.766645    -1998.783279  0.274543 -3.680576  5.191621
   scf:    3    -2000.395148    -2000.410811    -2000.426243  0.144743 -3.627771  0.597039
   scf:    4    -2000.476510    -2000.468616    -2000.483803  0.023746 -3.631467  0.309192
   scf:    5    -2000.481087    -2000.476243    -2000.491414  0.005911 -3.628236  0.266940
   scf:    6    -2000.496519    -2000.487663    -2000.502680  0.013285 -3.625273  0.083242
   scf:    7    -2000.490102    -2000.489007    -2000.503918  0.004852 -3.623515  0.044468
   scf:    8    -2000.490161    -2000.489596    -2000.504408  0.002671 -3.622735  0.035466
   scf:    9    -2000.490403    -2000.490009    -2000.504731  0.002705 -3.622115  0.029185
   scf:   10    -2000.490710    -2000.490363    -2000.504979  0.003669 -3.621149  0.027026
   scf:   11    -2000.490717    -2000.490542    -2000.505086  0.002449 -3.620221  0.017599
   scf:   12    -2000.490772    -2000.490656    -2000.505156  0.001915 -3.619423  0.017297
   scf:   13    -2000.490852    -2000.490752    -2000.505213  0.001736 -3.618547  0.011899
   scf:   14    -2000.490912    -2000.490831    -2000.505254  0.001724 -3.617783  0.007863
   scf:   15    -2000.490914    -2000.490872    -2000.505272  0.001092 -3.617394  0.005214
   scf:   16    -2000.490917    -2000.490894    -2000.505279  0.000684 -3.617210  0.003164
   scf:   17    -2000.490915    -2000.490904    -2000.505282  0.000350 -3.617207  0.002904
   scf:   18    -2000.490920    -2000.490912    -2000.505284  0.000288 -3.617211  0.001960
   scf:   19    -2000.490922    -2000.490917    -2000.505286  0.000190 -3.617254  0.002102
   scf:   20    -2000.490924    -2000.490920    -2000.505286  0.000128 -3.617291  0.001526
:!: SCF did not converge in maximum number of steps.

Using DM_out to compute the final energy and forces
No. of atoms with KB's overlaping orbs in proc 0. Max # of overlaps:      71     139

siesta: E_KS(eV) =            -2000.4909

siesta: Atomic forces (eV/Ang):
     1   -2.386079   -3.136958    2.712025
     2    0.372565    1.945924   -2.526140
     3    0.293657   -3.084433    0.446406
     4    6.565128   -0.921948   -5.842832
     5    2.490330    2.906641   -1.680791
     6   -4.922622   -1.639250    1.496267
----------------------------------------
   Tot    2.412979   -3.930022   -5.395064
----------------------------------------
   Max    6.565128
   Res    3.052486    sqrt( Sum f_i^2 / 3N )
----------------------------------------
   Max    6.565128    constrained

Stress-tensor-Voigt (kbar):       59.95       34.04       93.07       76.82      -69.38      -70.58
(Free)E + p*V (eV/cell)    -2003.5986
Target enthalpy (eV/cell)    -2000.5053

siesta: Stress tensor (static) (eV/Ang**3):
         0.037421    0.047972   -0.044045
         0.047946    0.021246   -0.043328
        -0.044052   -0.043305    0.058088

siesta: Pressure (static):        -62.35410681  kBar

siesta: Stress tensor (total) (eV/Ang**3):
         0.037421    0.047972   -0.044045
         0.047946    0.021246   -0.043328
        -0.044052   -0.043305    0.058088

siesta: Pressure (total):        -62.35410681  kBar

                     ====================================
                        Begin Broyden opt. move =      4
                     ====================================

outcoor: Atomic coordinates (fractional):                   
    0.00399016   -0.07888091   -0.00729445   2       1  Ti
    0.37931253    0.26317547    0.81004918   2       2  Ti
    0.39930377    0.75867122    0.21534218   1       3  O
    0.85229764    0.37692501    0.05486468   1       4  O
    0.30222849    0.07946188    0.35675962   1       5  O
    0.60228764    0.67159076    0.50508689   1       6  O
 Kpoints in:          180 . Kpoints trimmed:          180

siesta: k-grid: Number of k-points =   180
siesta: k-grid: Cutoff (effective) =    15.416 Ang
siesta: k-grid: Supercell and displacements
siesta: k-grid:    9   0   0      0.000
siesta: k-grid:    0   8   0      0.500
siesta: k-grid:    0   0   5      0.000

superc: Internal auxiliary supercell:     7 x     5 x     5  =     175
superc: Number of atoms, orbitals, and projectors:   1050   4900  11900

outcell: Unit cell vectors (Ang):
        3.425789   -0.003997    0.006696
        1.280413    3.809913    0.067765
        0.898265    0.595056    6.085817

outcell: Cell vector modules (Ang)   :    3.425798    4.019887    6.180465
outcell: Cell angles (23,13,12) (deg):     81.1329     81.5381     71.4915
outcell: Cell volume (Ang**3)        :     79.3068
<dSpData1D:S at geom step 4
  <sparsity:sparsity for geom step 4
    nrows_g=28 nrows=28 sparsity=18.0230 nnzs=14130, refcount: 7>
  <dData1D:(new from dSpData1D) n=14130, refcount: 1>
refcount: 1>
New_DM. Step:     5
Re-using DM from previous geometries...
N DMs in history: 1
 DM extrapolation coefficients: 
1   1.00000
New DM after history re-use:
<dSpData2D:SpM extrapolated using coords
  <sparsity:sparsity for geom step 4
    nrows_g=28 nrows=28 sparsity=18.0230 nnzs=14130, refcount: 8>
  <dData2D:(temp array for extrapolation) n=14130 m=1, refcount: 1>
refcount: 1>
No. of atoms with KB's overlaping orbs in proc 0. Max # of overlaps:      71     139
New grid distribution:   1
           1       1:   10    1:   12    1:   20

InitMesh: MESH =    20 x    24 x    40 =       19200
InitMesh: (bp) =    10 x    12 x    20 =        2400
InitMesh: Mesh cutoff (required, used) =   100.000   105.917 Ry
ExtMesh (bp) on 0 =    58 x    60 x    72 =      250560
PhiOnMesh: Number of (b)points on node 0 =                 2400
PhiOnMesh: nlist on node 0 =                55928

        iscf     Eharris(eV)        E_KS(eV)     FreeEng(eV)     dDmax    Ef(eV) dHmax(eV)
   scf:    1    -1997.734161    -2000.105591    -2000.120719  0.125611 -3.581916  4.022412
   scf:    2    -1994.081538    -1999.731191    -1999.744862  0.207230 -3.668397  5.160086
   scf:    3    -2001.553266    -2001.364044    -2001.378777  0.134618 -3.626073  0.202143
   scf:    4    -2001.368984    -2001.368165    -2001.382874  0.006616 -3.624151  0.110692
   scf:    5    -2001.369598    -2001.368912    -2001.383584  0.001344 -3.623024  0.089901
   scf:    6    -2001.371001    -2001.370016    -2001.384592  0.003078 -3.620350  0.043187
   scf:    7    -2001.370829    -2001.370452    -2001.384949  0.002500 -3.617903  0.014967
   scf:    8    -2001.370577    -2001.370523    -2001.384992  0.001045 -3.617487  0.010817
   scf:    9    -2001.370553    -2001.370539    -2001.385003  0.000328 -3.617532  0.007692
   scf:   10    -2001.370591    -2001.370565    -2001.385018  0.000571 -3.617597  0.007613
   scf:   11    -2001.370612    -2001.370588    -2001.385031  0.000585 -3.617670  0.006707
   scf:   12    -2001.370631    -2001.370609    -2001.385041  0.000599 -3.617713  0.005628
   scf:   13    -2001.370643    -2001.370626    -2001.385049  0.000520 -3.617718  0.004494
   scf:   14    -2001.370649    -2001.370637    -2001.385053  0.000405 -3.617709  0.004319
   scf:   15    -2001.370652    -2001.370645    -2001.385055  0.000280 -3.617672  0.003208
   scf:   16    -2001.370654    -2001.370649    -2001.385057  0.000198 -3.617644  0.003486
   scf:   17    -2001.370655    -2001.370652    -2001.385058  0.000133 -3.617604  0.002554
   scf:   18    -2001.370657    -2001.370655    -2001.385059  0.000121 -3.617582  0.002995
   scf:   19    -2001.370658    -2001.370657    -2001.385059  0.000090 -3.617550  0.002178
   scf:   20    -2001.370661    -2001.370659    -2001.385060  0.000097 -3.617535  0.002605
:!: SCF did not converge in maximum number of steps.

Using DM_out to compute the final energy and forces
No. of atoms with KB's overlaping orbs in proc 0. Max # of overlaps:      71     139

siesta: E_KS(eV) =            -2001.3707

siesta: Atomic forces (eV/Ang):
     1   -2.414315   -3.121565    2.936009
     2    0.347626    2.024549   -2.572832
     3    0.120099   -2.944679    0.756080
     4   -0.278116   -0.838222   -5.842194
     5   -0.934530    1.634983   -1.669148
     6   -2.255287   -2.200017    1.021190
----------------------------------------
   Tot   -5.414524   -5.444953   -5.370894
----------------------------------------
   Max    5.842194
   Res    2.315438    sqrt( Sum f_i^2 / 3N )
----------------------------------------
   Max    5.842194    constrained

Stress-tensor-Voigt (kbar):       21.14        5.78       86.43       81.22      -52.07      -63.88
(Free)E + p*V (eV/cell)    -2003.2554
Target enthalpy (eV/cell)    -2001.3851

siesta: Stress tensor (static) (eV/Ang**3):
         0.013192    0.050699   -0.039868
         0.050694    0.003610   -0.032529
        -0.039870   -0.032502    0.053947

siesta: Pressure (static):        -37.78479024  kBar

siesta: Stress tensor (total) (eV/Ang**3):
         0.013192    0.050699   -0.039868
         0.050694    0.003610   -0.032529
        -0.039870   -0.032502    0.053947

siesta: Pressure (total):        -37.78479024  kBar

                     ====================================
                        Begin Broyden opt. move =      5
                     ====================================

outcoor: Atomic coordinates (fractional):                   
   -0.00185238   -0.08834426   -0.00419505   2       1  Ti
    0.37890453    0.26727653    0.80594031   2       2  Ti
    0.39952926    0.75261866    0.21619509   1       3  O
    0.84224909    0.37432517    0.04676673   1       4  O
    0.29457849    0.07987836    0.35423999   1       5  O
    0.59978255    0.66590523    0.50567016   1       6  O
 Kpoints in:          180 . Kpoints trimmed:          180

siesta: k-grid: Number of k-points =   180
siesta: k-grid: Cutoff (effective) =    15.422 Ang
siesta: k-grid: Supercell and displacements
siesta: k-grid:    9   0   0      0.000
siesta: k-grid:    0   8   0      0.500
siesta: k-grid:    0   0   5      0.000

superc: Internal auxiliary supercell:     7 x     5 x     5  =     175
superc: Number of atoms, orbitals, and projectors:   1050   4900  11900

outcell: Unit cell vectors (Ang):
        3.427027   -0.008458    0.010300
        1.275868    3.809844    0.071881
        0.904433    0.598543    6.080477

outcell: Cell vector modules (Ang)   :    3.427053    4.018447    6.176443
outcell: Cell angles (23,13,12) (deg):     81.0264     81.4223     71.6263
outcell: Cell volume (Ang**3)        :     79.2794
<dSpData1D:S at geom step 5
  <sparsity:sparsity for geom step 5
    nrows_g=28 nrows=28 sparsity=18.1913 nnzs=14262, refcount: 7>
  <dData1D:(new from dSpData1D) n=14262, refcount: 1>
refcount: 1>
New_DM. Step:     6
Re-using DM from previous geometries...
N DMs in history: 1
 DM extrapolation coefficients: 
1   1.00000
New DM after history re-use:
<dSpData2D:SpM extrapolated using coords
  <sparsity:sparsity for geom step 5
    nrows_g=28 nrows=28 sparsity=18.1913 nnzs=14262, refcount: 8>
  <dData2D:(temp array for extrapolation) n=14262 m=1, refcount: 1>
refcount: 1>
No. of atoms with KB's overlaping orbs in proc 0. Max # of overlaps:      71     138
New grid distribution:   1
           1       1:   10    1:   12    1:   20

InitMesh: MESH =    20 x    24 x    40 =       19200
InitMesh: (bp) =    10 x    12 x    20 =        2400
InitMesh: Mesh cutoff (required, used) =   100.000   105.715 Ry
ExtMesh (bp) on 0 =    58 x    60 x    72 =      250560
PhiOnMesh: Number of (b)points on node 0 =                 2400
PhiOnMesh: nlist on node 0 =                56036

        iscf     Eharris(eV)        E_KS(eV)     FreeEng(eV)     dDmax    Ef(eV) dHmax(eV)
   scf:    1    -1993.256012    -1999.001723    -1999.015528  0.228664 -3.562025  6.097798
   scf:    2    -1981.005390    -1997.021899    -1997.033902  0.368341 -3.651267  8.689527
   scf:    3    -2002.859449    -2001.783215    -2001.796308  0.215852 -3.601524  0.938320
   scf:    4    -2001.866707    -2001.845076    -2001.858313  0.020834 -3.597099  0.171752
   scf:    5    -2001.848162    -2001.847951    -2001.861216  0.005138 -3.595812  0.082448
   scf:    6    -2001.849456    -2001.848804    -2001.862008  0.003305 -3.595586  0.051277
   scf:    7    -2001.849825    -2001.849364    -2001.862531  0.002987 -3.594479  0.026682
   scf:    8    -2001.849954    -2001.849671    -2001.862786  0.003157 -3.593235  0.013741
   scf:    9    -2001.849781    -2001.849726    -2001.862826  0.001093 -3.592872  0.014044
   scf:   10    -2001.849800    -2001.849763    -2001.862853  0.000822 -3.592626  0.012592
   scf:   11    -2001.849831    -2001.849796    -2001.862877  0.000816 -3.592371  0.009915
   scf:   12    -2001.849888    -2001.849841    -2001.862906  0.001288 -3.592005  0.009077
   scf:   13    -2001.849907    -2001.849873    -2001.862925  0.001064 -3.591678  0.005711
   scf:   14    -2001.849919    -2001.849896    -2001.862937  0.000898 -3.591443  0.005280
   scf:   15    -2001.849920    -2001.849908    -2001.862943  0.000524 -3.591288  0.003254
   scf:   16    -2001.849922    -2001.849915    -2001.862946  0.000346 -3.591215  0.003445
   scf:   17    -2001.849922    -2001.849918    -2001.862947  0.000178 -3.591167  0.002339
   scf:   18    -2001.849924    -2001.849921    -2001.862948  0.000142 -3.591151  0.002859
   scf:   19    -2001.849924    -2001.849923    -2001.862949  0.000095 -3.591129  0.001926
   scf:   20    -2001.849927    -2001.849925    -2001.862949  0.000105 -3.591122  0.002562
:!: SCF did not converge in maximum number of steps.

Using DM_out to compute the final energy and forces
No. of atoms with KB's overlaping orbs in proc 0. Max # of overlaps:      71     138

siesta: E_KS(eV) =            -2001.8499

siesta: Atomic forces (eV/Ang):
     1   -2.268244   -3.010734    3.099830
     2    0.428538    2.051120   -2.492655
     3    0.409352   -0.170701    0.804787
     4    6.174012   -0.066778   -1.878909
     5    3.679999    0.594181   -2.057361
     6   -0.016974    0.824786    0.407879
----------------------------------------
   Tot    8.406683    0.221875   -2.116429
----------------------------------------
   Max    6.174012
   Res    2.308140    sqrt( Sum f_i^2 / 3N )
----------------------------------------
   Max    6.174012    constrained

Stress-tensor-Voigt (kbar):       51.78       -6.98       83.70       78.86      -48.69      -60.19
(Free)E + p*V (eV/cell)    -2003.9822
Target enthalpy (eV/cell)    -2001.8629

siesta: Stress tensor (static) (eV/Ang**3):
         0.032316    0.049254   -0.037569
         0.049220   -0.004359   -0.030415
        -0.037565   -0.030387    0.052239

siesta: Pressure (static):        -42.82972299  kBar

siesta: Stress tensor (total) (eV/Ang**3):
         0.032316    0.049254   -0.037569
         0.049220   -0.004359   -0.030415
        -0.037565   -0.030387    0.052239

siesta: Pressure (total):        -42.82972299  kBar

                     ====================================
                        Begin Broyden opt. move =      6
                     ====================================

outcoor: Atomic coordinates (fractional):                   
   -0.01832883   -0.10927728    0.00536065   2       1  Ti
    0.38189949    0.27956229    0.79749536   2       2  Ti
    0.40150890    0.74886313    0.21955172   1       3  O
    0.85549272    0.37597873    0.03689876   1       4  O
    0.30310746    0.08374544    0.34756482   1       5  O
    0.60357347    0.66622708    0.50728774   1       6  O
 Kpoints in:          180 . Kpoints trimmed:          180

siesta: k-grid: Number of k-points =   180
siesta: k-grid: Cutoff (effective) =    15.403 Ang
siesta: k-grid: Supercell and displacements
siesta: k-grid:    9   0   0      0.000
siesta: k-grid:    0   8   0      0.500
siesta: k-grid:    0   0   5      0.000

superc: Internal auxiliary supercell:     7 x     5 x     5  =     175
superc: Number of atoms, orbitals, and projectors:   1050   4900  11900

outcell: Unit cell vectors (Ang):
        3.422778   -0.019862    0.018415
        1.261467    3.807833    0.081580
        0.916304    0.606562    6.062574

outcell: Cell vector modules (Ang)   :    3.422886    4.012175    6.161358
outcell: Cell angles (23,13,12) (deg):     80.7816     81.1739     72.0009
outcell: Cell volume (Ang**3)        :     78.9466
<dSpData1D:S at geom step 6
  <sparsity:sparsity for geom step 6
    nrows_g=28 nrows=28 sparsity=18.3367 nnzs=14376, refcount: 7>
  <dData1D:(new from dSpData1D) n=14376, refcount: 1>
refcount: 1>
New_DM. Step:     7
Re-using DM from previous geometries...
N DMs in history: 1
 DM extrapolation coefficients: 
1   1.00000
New DM after history re-use:
<dSpData2D:SpM extrapolated using coords
  <sparsity:sparsity for geom step 6
    nrows_g=28 nrows=28 sparsity=18.3367 nnzs=14376, refcount: 8>
  <dData2D:(temp array for extrapolation) n=14376 m=1, refcount: 1>
refcount: 1>
No. of atoms with KB's overlaping orbs in proc 0. Max # of overlaps:      71     139
New grid distribution:   1
           1       1:   10    1:   12    1:   20

InitMesh: MESH =    20 x    24 x    40 =       19200
InitMesh: (bp) =    10 x    12 x    20 =        2400
InitMesh: Mesh cutoff (required, used) =   100.000   105.613 Ry
ExtMesh (bp) on 0 =    58 x    60 x    72 =      250560
PhiOnMesh: Number of (b)points on node 0 =                 2400
PhiOnMesh: nlist on node 0 =                56296

        iscf     Eharris(eV)        E_KS(eV)     FreeEng(eV)     dDmax    Ef(eV) dHmax(eV)
   scf:    1    -1989.870630    -1998.616052    -1998.630912  0.301982 -3.506800  7.157249
   scf:    2    -1972.746563    -1995.871288    -1995.881392  0.473497 -3.578633 10.371520
   scf:    3    -2004.484849    -2002.719517    -2002.733820  0.234032 -3.554394  1.388986
   scf:    4    -2002.866289    -2002.855451    -2002.869791  0.037810 -3.558279  0.263069
   scf:    5    -2002.863629    -2002.860440    -2002.874748  0.005795 -3.560849  0.111523
   scf:    6    -2002.863775    -2002.862477    -2002.876730  0.004658 -3.562500  0.093829
   scf:    7    -2002.864312    -2002.863476    -2002.877711  0.001753 -3.562588  0.076831
   scf:    8    -2002.866195    -2002.864899    -2002.879094  0.005485 -3.562953  0.036422
   scf:    9    -2002.865612    -2002.865265    -2002.879458  0.003235 -3.563189  0.012559
   scf:   10    -2002.865440    -2002.865353    -2002.879562  0.000997 -3.563278  0.012243
   scf:   11    -2002.865416    -2002.865385    -2002.879606  0.000554 -3.563292  0.008652
   scf:   12    -2002.865480    -2002.865433    -2002.879673  0.001067 -3.563318  0.010659
   scf:   13    -2002.865500    -2002.865466    -2002.879727  0.001051 -3.563298  0.006146
   scf:   14    -2002.865507    -2002.865485    -2002.879763  0.000976 -3.563276  0.005039
   scf:   15    -2002.865502    -2002.865493    -2002.879779  0.000474 -3.563245  0.003593
   scf:   16    -2002.865505    -2002.865499    -2002.879788  0.000322 -3.563221  0.003017
   scf:   17    -2002.865507    -2002.865503    -2002.879795  0.000253 -3.563200  0.002358
   scf:   18    -2002.865509    -2002.865506    -2002.879799  0.000214 -3.563185  0.002312
   scf:   19    -2002.865510    -2002.865508    -2002.879802  0.000156 -3.563173  0.001835
   scf:   20    -2002.865511    -2002.865510    -2002.879804  0.000136 -3.563170  0.002141
:!: SCF did not converge in maximum number of steps.

Using DM_out to compute the final energy and forces
No. of atoms with KB's overlaping orbs in proc 0. Max # of overlaps:      71     139

siesta: E_KS(eV) =            -2002.8655

siesta: Atomic forces (eV/Ang):
     1   -2.102108   -2.143640    3.283005
     2    0.341650    1.979009   -2.191058
     3   -0.811471    2.568185    0.604591
     4   -1.728301   -0.566905   -3.657297
     5   -2.041642   -0.668761    2.950010
     6   -2.320843    0.458642    1.427756
----------------------------------------
   Tot   -8.662716    1.626530    2.417007
----------------------------------------
   Max    3.657297
   Res    2.025987    sqrt( Sum f_i^2 / 3N )
----------------------------------------
   Max    3.657297    constrained

Stress-tensor-Voigt (kbar):       79.29       44.79      120.26       87.73      -49.52      -61.26
(Free)E + p*V (eV/cell)    -2006.8931
Target enthalpy (eV/cell)    -2002.8798

siesta: Stress tensor (static) (eV/Ang**3):
         0.049488    0.054823   -0.038241
         0.054755    0.027958   -0.030954
        -0.038236   -0.030910    0.075061

siesta: Pressure (static):        -81.44878638  kBar

siesta: Stress tensor (total) (eV/Ang**3):
         0.049488    0.054823   -0.038241
         0.054755    0.027958   -0.030954
        -0.038236   -0.030910    0.075061

siesta: Pressure (total):        -81.44878638  kBar

                     ====================================
                        Begin Broyden opt. move =      7
                     ====================================

outcoor: Atomic coordinates (fractional):                   
   -0.02905516   -0.12319343    0.01257352   2       1  Ti
    0.38269485    0.28793992    0.79116418   2       2  Ti
    0.39930489    0.75434584    0.22173713   1       3  O
    0.85770688    0.37581723    0.02899935   1       4  O
    0.30146784    0.08202679    0.35029156   1       5  O
    0.59782916    0.66701178    0.50961961   1       6  O
 Kpoints in:          180 . Kpoints trimmed:          180

siesta: k-grid: Number of k-points =   180
siesta: k-grid: Cutoff (effective) =    15.368 Ang
siesta: k-grid: Supercell and displacements
siesta: k-grid:    9   0   0      0.000
siesta: k-grid:    0   8   0      0.500
siesta: k-grid:    0   0   5      0.000

superc: Internal auxiliary supercell:     7 x     5 x     5  =     175
superc: Number of atoms, orbitals, and projectors:   1050   4900  11900

outcell: Unit cell vectors (Ang):
        3.416995   -0.028628    0.024984
        1.249455    3.802635    0.089762
        0.925376    0.613222    6.046062

outcell: Cell vector modules (Ang)   :    3.417207    4.003651    6.147132
outcell: Cell angles (23,13,12) (deg):     80.5736     80.9739     72.2860
outcell: Cell volume (Ang**3)        :     78.5170
<dSpData1D:S at geom step 7
  <sparsity:sparsity for geom step 7
    nrows_g=28 nrows=28 sparsity=18.3648 nnzs=14398, refcount: 7>
  <dData1D:(new from dSpData1D) n=14398, refcount: 1>
refcount: 1>
New_DM. Step:     8
Re-using DM from previous geometries...
N DMs in history: 1
 DM extrapolation coefficients: 
1   1.00000
New DM after history re-use:
<dSpData2D:SpM extrapolated using coords
  <sparsity:sparsity for geom step 7
    nrows_g=28 nrows=28 sparsity=18.3648 nnzs=14398, refcount: 8>
  <dData2D:(temp array for extrapolation) n=14398 m=1, refcount: 1>
refcount: 1>
No. of atoms with KB's overlaping orbs in proc 0. Max # of overlaps:      71     139
New grid distribution:   1
           1       1:   10    1:   12    1:   20

InitMesh: MESH =    20 x    24 x    40 =       19200
InitMesh: (bp) =    10 x    12 x    20 =        2400
InitMesh: Mesh cutoff (required, used) =   100.000   105.702 Ry
ExtMesh (bp) on 0 =    58 x    60 x    72 =      250560
PhiOnMesh: Number of (b)points on node 0 =                 2400
PhiOnMesh: nlist on node 0 =                56528

        iscf     Eharris(eV)        E_KS(eV)     FreeEng(eV)     dDmax    Ef(eV) dHmax(eV)
   scf:    1    -1999.079381    -2002.316520    -2002.332168  0.149977 -3.467688  3.831811
   scf:    2    -1994.882959    -2001.693567    -2001.705371  0.271938 -3.521798  5.430371
   scf:    3    -2004.064791    -2003.707002    -2003.721666  0.137322 -3.509078  0.645503
   scf:    4    -2003.730118    -2003.730833    -2003.745610  0.019002 -3.515289  0.127329
   scf:    5    -2003.733892    -2003.733578    -2003.748328  0.004884 -3.516924  0.074224
   scf:    6    -2003.735092    -2003.734433    -2003.749174  0.001906 -3.517335  0.058228
   scf:    7    -2003.735959    -2003.735251    -2003.749985  0.002185 -3.516575  0.035386
   scf:    8    -2003.735974    -2003.735650    -2003.750357  0.002037 -3.516353  0.024203
   scf:    9    -2003.736063    -2003.735875    -2003.750574  0.001650 -3.515703  0.012404
   scf:   10    -2003.736054    -2003.735968    -2003.750656  0.000850 -3.515408  0.006337
   scf:   11    -2003.736048    -2003.736008    -2003.750692  0.000490 -3.515251  0.005402
   scf:   12    -2003.736069    -2003.736038    -2003.750720  0.000447 -3.515134  0.004729
   scf:   13    -2003.736103    -2003.736070    -2003.750748  0.000547 -3.515021  0.003919
   scf:   14    -2003.736127    -2003.736098    -2003.750774  0.000571 -3.514900  0.003055
   scf:   15    -2003.736140    -2003.736119    -2003.750791  0.000498 -3.514819  0.002625
   scf:   16    -2003.736143    -2003.736131    -2003.750802  0.000369 -3.514758  0.002463
   scf:   17    -2003.736146    -2003.736138    -2003.750808  0.000246 -3.514739  0.001889
   scf:   18    -2003.736146    -2003.736142    -2003.750812  0.000191 -3.514724  0.001840
   scf:   19    -2003.736148    -2003.736145    -2003.750814  0.000123 -3.514729  0.001463
   scf:   20    -2003.736148    -2003.736147    -2003.750816  0.000099 -3.514733  0.001455
:!: SCF did not converge in maximum number of steps.

Using DM_out to compute the final energy and forces
No. of atoms with KB's overlaping orbs in proc 0. Max # of overlaps:      71     139

siesta: E_KS(eV) =            -2003.7361

siesta: Atomic forces (eV/Ang):
     1   -2.178848   -1.760706    3.141582
     2    0.536459    1.940264   -2.110346
     3   -0.085391   -1.644304   -0.601372
     4   -2.896160   -0.466308   -5.425244
     5   -0.771519    0.877176    0.916230
     6    1.536286   -1.031287    2.495925
----------------------------------------
   Tot   -3.859173   -2.085164   -1.583225
----------------------------------------
   Max    5.425244
   Res    2.097507    sqrt( Sum f_i^2 / 3N )
----------------------------------------
   Max    5.425244    constrained

Stress-tensor-Voigt (kbar):       92.69       80.22       90.49       89.17      -52.44      -68.92
(Free)E + p*V (eV/cell)    -2008.0535
Target enthalpy (eV/cell)    -2003.7508

siesta: Stress tensor (static) (eV/Ang**3):
         0.057855    0.055733   -0.043026
         0.055653    0.050067   -0.032782
        -0.043019   -0.032731    0.056477

siesta: Pressure (static):        -87.79927202  kBar

siesta: Stress tensor (total) (eV/Ang**3):
         0.057855    0.055733   -0.043026
         0.055653    0.050067   -0.032782
        -0.043019   -0.032731    0.056477

siesta: Pressure (total):        -87.79927202  kBar
Cycling the Broyden process...

                     ====================================
                        Begin Broyden opt. move =      8
                     ====================================

outcoor: Atomic coordinates (fractional):                   
   -0.03389304   -0.12902978    0.01572929   2       1  Ti
    0.38325394    0.29169081    0.78840107   2       2  Ti
    0.39926610    0.75351817    0.22173101   1       3  O
    0.85763628    0.37581634    0.02457487   1       4  O
    0.30233702    0.08317401    0.35078287   1       5  O
    0.59970647    0.66743042    0.51173328   1       6  O
 Kpoints in:          180 . Kpoints trimmed:          180

siesta: k-grid: Number of k-points =   180
siesta: k-grid: Cutoff (effective) =    15.355 Ang
siesta: k-grid: Supercell and displacements
siesta: k-grid:    9   0   0      0.000
siesta: k-grid:    0   8   0      0.500
siesta: k-grid:    0   0   5      0.000

superc: Internal auxiliary supercell:     7 x     5 x     5  =     175
superc: Number of atoms, orbitals, and projectors:   1050   4900  11900

outcell: Unit cell vectors (Ang):
        3.413994   -0.032611    0.028114
        1.243855    3.799285    0.093574
        0.929661    0.616185    6.040029

outcell: Cell vector modules (Ang)   :    3.414266    3.998813    6.142142
outcell: Cell angles (23,13,12) (deg):     80.4791     80.8810     72.4133
outcell: Cell volume (Ang**3)        :     78.3112
<dSpData1D:S at geom step 8
  <sparsity:sparsity for geom step 8
    nrows_g=28 nrows=28 sparsity=18.3648 nnzs=14398, refcount: 7>
  <dData1D:(new from dSpData1D) n=14398, refcount: 1>
refcount: 1>
New_DM. Step:     9
Re-using DM from previous geometries...
N DMs in history: 1
 DM extrapolation coefficients: 
1   1.00000
New DM after history re-use:
<dSpData2D:SpM extrapolated using coords
  <sparsity:sparsity for geom step 8
    nrows_g=28 nrows=28 sparsity=18.3648 nnzs=14398, refcount: 8>
  <dData2D:(temp array for extrapolation) n=14398 m=1, refcount: 1>
refcount: 1>
No. of atoms with KB's overlaping orbs in proc 0. Max # of overlaps:      71     139
New grid distribution:   1
           1       1:   10    1:   12    1:   20

InitMesh: MESH =    20 x    24 x    40 =       19200
InitMesh: (bp) =    10 x    12 x    20 =        2400
InitMesh: Mesh cutoff (required, used) =   100.000   105.771 Ry
ExtMesh (bp) on 0 =    58 x    60 x    72 =      250560
PhiOnMesh: Number of (b)points on node 0 =                 2400
PhiOnMesh: nlist on node 0 =                56716

        iscf     Eharris(eV)        E_KS(eV)     FreeEng(eV)     dDmax    Ef(eV) dHmax(eV)
   scf:    1    -1999.869861    -2002.713340    -2002.729207  0.151705 -3.484552  4.097652
   scf:    2    -1994.024914    -2001.843142    -2001.854401  0.301130 -3.531219  5.659540
   scf:    3    -2004.553083    -2004.127020    -2004.141042  0.144740 -3.511243  0.496000
   scf:    4    -2004.138416    -2004.144996    -2004.159193  0.019976 -3.512054  0.105847
   scf:    5    -2004.146925    -2004.146309    -2004.160505  0.002639 -3.512392  0.041267
   scf:    6    -2004.146744    -2004.146595    -2004.160774  0.001326 -3.512329  0.028247
   scf:    7    -2004.146800    -2004.146706    -2004.160887  0.000568 -3.511788  0.025132
   scf:    8    -2004.147059    -2004.146892    -2004.161061  0.001284 -3.510799  0.011464
   scf:    9    -2004.147051    -2004.146975    -2004.161134  0.001217 -3.509854  0.004063
   scf:   10    -2004.147006    -2004.146990    -2004.161144  0.000274 -3.509819  0.003660
   scf:   11    -2004.147014    -2004.147002    -2004.161152  0.000211 -3.509861  0.003273
   scf:   12    -2004.147022    -2004.147012    -2004.161159  0.000214 -3.509901  0.002893
   scf:   13    -2004.147032    -2004.147022    -2004.161166  0.000215 -3.509948  0.002506
   scf:   14    -2004.147034    -2004.147028    -2004.161170  0.000172 -3.509985  0.002207
   scf:   15    -2004.147040    -2004.147034    -2004.161173  0.000143 -3.510022  0.001952
   scf:   16    -2004.147039    -2004.147037    -2004.161175  0.000114 -3.510040  0.001773
   scf:   17    -2004.147043    -2004.147040    -2004.161177  0.000094 -3.510061  0.001620
   scf:   18    -2004.147043    -2004.147042    -2004.161179  0.000082 -3.510070  0.001503
   scf:   19    -2004.147046    -2004.147044    -2004.161180  0.000071 -3.510083  0.001391
   scf:   20    -2004.147046    -2004.147045    -2004.161181  0.000068 -3.510088  0.001298
:!: SCF did not converge in maximum number of steps.

Using DM_out to compute the final energy and forces
No. of atoms with KB's overlaping orbs in proc 0. Max # of overlaps:      71     139

siesta: E_KS(eV) =            -2004.1470

siesta: Atomic forces (eV/Ang):
     1   -2.225847   -1.649075    3.175513
     2    0.701248    2.016512   -2.230794
     3    0.067288   -0.997067   -0.670438
     4   -2.953907   -0.541792   -2.749006
     5   -1.499216    0.056760    0.577091
     6    0.257674   -1.235079    4.174781
----------------------------------------
   Tot   -5.652760   -2.349739    2.277147
----------------------------------------
   Max    4.174781
   Res    1.928169    sqrt( Sum f_i^2 / 3N )
----------------------------------------
   Max    4.174781    constrained

Stress-tensor-Voigt (kbar):       96.23       98.64       95.95       91.76      -49.29      -68.18
(Free)E + p*V (eV/cell)    -2008.8994
Target enthalpy (eV/cell)    -2004.1612

siesta: Stress tensor (static) (eV/Ang**3):
         0.060060    0.057338   -0.042565
         0.057272    0.061568   -0.030793
        -0.042555   -0.030764    0.059888

siesta: Pressure (static):        -96.94119709  kBar

siesta: Stress tensor (total) (eV/Ang**3):
         0.060060    0.057338   -0.042565
         0.057272    0.061568   -0.030793
        -0.042555   -0.030764    0.059888

siesta: Pressure (total):        -96.94119709  kBar
Cycling the Broyden process...

                     ====================================
                        Begin Broyden opt. move =      9
                     ====================================

outcoor: Atomic coordinates (fractional):                   
   -0.03180560   -0.12424266    0.01447624   2       1  Ti
    0.38430282    0.29035989    0.79014105   2       2  Ti
    0.40024456    0.75425675    0.22048707   1       3  O
    0.85463948    0.37474931    0.03013875   1       4  O
    0.30048141    0.08092380    0.35046437   1       5  O
    0.59949156    0.66668216    0.51509659   1       6  O
 Kpoints in:          180 . Kpoints trimmed:          180

siesta: k-grid: Number of k-points =   180
siesta: k-grid: Cutoff (effective) =    15.360 Ang
siesta: k-grid: Supercell and displacements
siesta: k-grid:    9   0   0      0.000
siesta: k-grid:    0   8   0      0.500
siesta: k-grid:    0   0   5      0.000

superc: Internal auxiliary supercell:     7 x     5 x     5  =     175
superc: Number of atoms, orbitals, and projectors:   1050   4900  11900

outcell: Unit cell vectors (Ang):
        3.413158   -0.031047    0.026651
        1.245298    3.796709    0.091592
        0.927036    0.613882    6.042472

outcell: Cell vector modules (Ang)   :    3.413403    3.996768    6.143917
outcell: Cell angles (23,13,12) (deg):     80.5338     80.9297     72.3566
outcell: Cell volume (Ang**3)        :     78.2686
<dSpData1D:S at geom step 9
  <sparsity:sparsity for geom step 9
    nrows_g=28 nrows=28 sparsity=18.2117 nnzs=14278, refcount: 7>
  <dData1D:(new from dSpData1D) n=14278, refcount: 1>
refcount: 1>
New_DM. Step:    10
Re-using DM from previous geometries...
N DMs in history: 1
 DM extrapolation coefficients: 
1   1.00000
New DM after history re-use:
<dSpData2D:SpM extrapolated using coords
  <sparsity:sparsity for geom step 9
    nrows_g=28 nrows=28 sparsity=18.2117 nnzs=14278, refcount: 8>
  <dData2D:(temp array for extrapolation) n=14278 m=1, refcount: 1>
refcount: 1>
No. of atoms with KB's overlaping orbs in proc 0. Max # of overlaps:      71     138
New grid distribution:   1
           1       1:   10    1:   12    1:   20

InitMesh: MESH =    20 x    24 x    40 =       19200
InitMesh: (bp) =    10 x    12 x    20 =        2400
InitMesh: Mesh cutoff (required, used) =   100.000   105.873 Ry
ExtMesh (bp) on 0 =    58 x    60 x    72 =      250560
PhiOnMesh: Number of (b)points on node 0 =                 2400
PhiOnMesh: nlist on node 0 =                56716

        iscf     Eharris(eV)        E_KS(eV)     FreeEng(eV)     dDmax    Ef(eV) dHmax(eV)
   scf:    1    -2003.750759    -2003.901803    -2003.915387  0.042287 -3.558010  1.094096
   scf:    2    -2003.502794    -2003.880518    -2003.894689  0.061359 -3.538908  1.196246
   scf:    3    -2003.971058    -2003.992952    -2004.006739  0.044809 -3.544600  0.138974
   scf:    4    -2003.995448    -2003.995017    -2004.008816  0.003819 -3.543566  0.036048
   scf:    5    -2003.995311    -2003.995187    -2004.008996  0.000977 -3.543101  0.029183
   scf:    6    -2003.995370    -2003.995283    -2004.009099  0.000768 -3.543093  0.022840
   scf:    7    -2003.995460    -2003.995379    -2004.009211  0.001103 -3.543161  0.010886
   scf:    8    -2003.995421    -2003.995405    -2004.009249  0.001068 -3.543374  0.005221
   scf:    9    -2003.995402    -2003.995404    -2004.009252  0.000200 -3.543350  0.002251
   scf:   10    -2003.995405    -2003.995405    -2004.009253  0.000080 -3.543297  0.002198
   scf:   11    -2003.995404    -2003.995405    -2004.009255  0.000082 -3.543244  0.001732
   scf:   12    -2003.995404    -2003.995404    -2004.009255  0.000072 -3.543202  0.001476
   scf:   13    -2003.995404    -2003.995404    -2004.009256  0.000062 -3.543166  0.001071
   scf:   14    -2003.995404    -2003.995404    -2004.009256  0.000047 -3.543141  0.001301
   scf:   15    -2003.995403    -2003.995403    -2004.009257  0.000047 -3.543117  0.000914

SCF Convergence by DM+H criterion
max |DM_out - DM_in|         :     0.0000470595
max |H_out - H_in|      (eV) :     0.0009136504
SCF cycle converged after 15 iterations

Using DM_out to compute the final energy and forces
No. of atoms with KB's overlaping orbs in proc 0. Max # of overlaps:      71     138

siesta: E_KS(eV) =            -2003.9954

siesta: Atomic forces (eV/Ang):
     1   -2.271883   -1.805891    3.224674
     2    0.694936    2.032834   -2.296766
     3   -0.529825   -1.307665    0.081136
     4   -1.403691   -0.049680   -6.110933
     5   -0.002558    1.370993    0.584137
     6    0.430147   -0.703045    6.109124
----------------------------------------
   Tot   -3.082874   -0.462454    1.591373
----------------------------------------
   Max    6.110933
   Res    2.474838    sqrt( Sum f_i^2 / 3N )
----------------------------------------
   Max    6.110933    constrained

Stress-tensor-Voigt (kbar):       89.65       85.10      109.62       96.59      -53.85      -66.27
(Free)E + p*V (eV/cell)    -2008.6398
Target enthalpy (eV/cell)    -2004.0093

siesta: Stress tensor (static) (eV/Ang**3):
         0.055954    0.060264   -0.041362
         0.060286    0.053113   -0.033609
        -0.041363   -0.033610    0.068421

siesta: Pressure (static):        -94.78989949  kBar

siesta: Stress tensor (total) (eV/Ang**3):
         0.055954    0.060264   -0.041362
         0.060286    0.053113   -0.033609
        -0.041363   -0.033610    0.068421

siesta: Pressure (total):        -94.78989949  kBar
Cycling the Broyden process...

                     ====================================
                        Begin Broyden opt. move =     10
                     ====================================

outcoor: Atomic coordinates (fractional):                   
   -0.03812900   -0.13287682    0.01869743   2       1  Ti
    0.38378606    0.29499035    0.78648632   2       2  Ti
    0.40269168    0.75364095    0.21855275   1       3  O
    0.85494633    0.37243292    0.02666577   1       4  O
    0.30039930    0.07988094    0.35242074   1       5  O
    0.60289323    0.66645931    0.50518911   1       6  O
 Kpoints in:          180 . Kpoints trimmed:          180

siesta: k-grid: Number of k-points =   180
siesta: k-grid: Cutoff (effective) =    15.336 Ang
siesta: k-grid: Supercell and displacements
siesta: k-grid:    9   0   0      0.000
siesta: k-grid:    0   8   0      0.500
siesta: k-grid:    0   0   5      0.000

superc: Internal auxiliary supercell:     7 x     5 x     5  =     175
superc: Number of atoms, orbitals, and projectors:   1050   4900  11900

outcell: Unit cell vectors (Ang):
        3.407694   -0.035746    0.031748
        1.237973    3.792742    0.097729
        0.934125    0.619160    6.037225

outcell: Cell vector modules (Ang)   :    3.408030    3.990867    6.140361
outcell: Cell angles (23,13,12) (deg):     80.3810     80.7806     72.5165
outcell: Cell volume (Ang**3)        :     77.9977
<dSpData1D:S at geom step 10
  <sparsity:sparsity for geom step 10
    nrows_g=28 nrows=28 sparsity=18.3648 nnzs=14398, refcount: 7>
  <dData1D:(new from dSpData1D) n=14398, refcount: 1>
refcount: 1>
New_DM. Step:    11
Re-using DM from previous geometries...
N DMs in history: 1
 DM extrapolation coefficients: 
1   1.00000
New DM after history re-use:
<dSpData2D:SpM extrapolated using coords
  <sparsity:sparsity for geom step 10
    nrows_g=28 nrows=28 sparsity=18.3648 nnzs=14398, refcount: 8>
  <dData2D:(temp array for extrapolation) n=14398 m=1, refcount: 1>
refcount: 1>
No. of atoms with KB's overlaping orbs in proc 0. Max # of overlaps:      71     139
New grid distribution:   1
           1       1:   10    1:   12    1:   20

InitMesh: MESH =    20 x    24 x    40 =       19200
InitMesh: (bp) =    10 x    12 x    20 =        2400
InitMesh: Mesh cutoff (required, used) =   100.000   106.077 Ry
ExtMesh (bp) on 0 =    58 x    60 x    72 =      250560
PhiOnMesh: Number of (b)points on node 0 =                 2400
PhiOnMesh: nlist on node 0 =                56856

        iscf     Eharris(eV)        E_KS(eV)     FreeEng(eV)     dDmax    Ef(eV) dHmax(eV)
   scf:    1    -2003.448091    -2004.036840    -2004.051216  0.079194 -3.451017  1.391715
   scf:    2    -2003.039412    -2003.932532    -2003.948539  0.110551 -3.441291  1.772021
   scf:    3    -2004.194808    -2004.200920    -2004.216229  0.066745 -3.451330  0.155927
   scf:    4    -2004.204117    -2004.203051    -2004.218343  0.004460 -3.455020  0.063288
   scf:    5    -2004.204368    -2004.203850    -2004.219141  0.002821 -3.458630  0.047318
   scf:    6    -2004.204698    -2004.204286    -2004.219559  0.001052 -3.460799  0.033411
   scf:    7    -2004.205298    -2004.204831    -2004.220072  0.002993 -3.465449  0.023327
   scf:    8    -2004.205042    -2004.204957    -2004.220173  0.001071 -3.467269  0.006938
   scf:    9    -2004.204986    -2004.204972    -2004.220183  0.000215 -3.467378  0.005240
   scf:   10    -2004.205004    -2004.204988    -2004.220193  0.000278 -3.467458  0.003703
   scf:   11    -2004.205012    -2004.205000    -2004.220201  0.000233 -3.467472  0.002984
   scf:   12    -2004.205018    -2004.205009    -2004.220206  0.000200 -3.467472  0.002858
   scf:   13    -2004.205025    -2004.205017    -2004.220211  0.000194 -3.467467  0.002178
   scf:   14    -2004.205029    -2004.205023    -2004.220214  0.000164 -3.467449  0.002238
[...]

        iscf     Eharris(eV)        E_KS(eV)     FreeEng(eV)     dDmax    Ef(eV) dHmax(eV)
   scf:    1    -2005.170302    -2005.220272    -2005.234597  0.024565 -2.964427  0.770601
   scf:    2    -2004.937812    -2005.192621    -2005.207115  0.045108 -2.960782  0.945939
   scf:    3    -2005.266502    -2005.268185    -2005.282695  0.027140 -2.961474  0.088190
   scf:    4    -2005.268597    -2005.268484    -2005.283013  0.001686 -2.961616  0.029936
   scf:    5    -2005.268535    -2005.268526    -2005.283075  0.000990 -2.961283  0.011185
   scf:    6    -2005.268539    -2005.268533    -2005.283087  0.000189 -2.961002  0.008731
   scf:    7    -2005.268548    -2005.268541    -2005.283104  0.000353 -2.960487  0.004548
   scf:    8    -2005.268541    -2005.268542    -2005.283111  0.000343 -2.960098  0.002708
   scf:    9    -2005.268538    -2005.268540    -2005.283113  0.000188 -2.959940  0.001539
   scf:   10    -2005.268541    -2005.268541    -2005.283114  0.000075 -2.959956  0.001817
   scf:   11    -2005.268540    -2005.268541    -2005.283115  0.000086 -2.959957  0.001100
   scf:   12    -2005.268541    -2005.268541    -2005.283115  0.000070 -2.959972  0.001332
   scf:   13    -2005.268541    -2005.268541    -2005.283115  0.000067 -2.959981  0.001015
   scf:   14    -2005.268541    -2005.268541    -2005.283116  0.000065 -2.959991  0.001180
   scf:   15    -2005.268541    -2005.268541    -2005.283116  0.000061 -2.959998  0.000935

SCF Convergence by DM+H criterion
max |DM_out - DM_in|         :     0.0000614398
max |H_out - H_in|      (eV) :     0.0009352546
SCF cycle converged after 15 iterations

Using DM_out to compute the final energy and forces
No. of atoms with KB's overlaping orbs in proc 0. Max # of overlaps:      77     144

siesta: E_KS(eV) =            -2005.2685

siesta: Atomic forces (eV/Ang):
     1   -0.371977    0.443682    1.456894
     2    0.397695    1.425358   -0.569473
     3   -0.707329    0.254750   -1.478428
     4   -0.120493    0.196438   -0.165521
     5   -0.126203    0.017446    0.305137
     6    0.203150    0.119384    2.241026
----------------------------------------
   Tot   -0.725156    2.457058    1.789633
----------------------------------------
   Max    2.241026
   Res    0.849522    sqrt( Sum f_i^2 / 3N )
----------------------------------------
   Max    2.241026    constrained

Stress-tensor-Voigt (kbar):      -56.38       24.74       18.68       61.60      -33.79     -116.70
(Free)E + p*V (eV/cell)    -2005.0796
Target enthalpy (eV/cell)    -2005.2831

siesta: Stress tensor (static) (eV/Ang**3):
        -0.035192    0.038451   -0.072854
         0.038448    0.015439   -0.021094
        -0.072836   -0.021091    0.011660

siesta: Pressure (static):          4.32251221  kBar

siesta: Stress tensor (total) (eV/Ang**3):
        -0.035192    0.038451   -0.072854
         0.038448    0.015439   -0.021094
        -0.072836   -0.021091    0.011660

siesta: Pressure (total):          4.32251221  kBar
Cycling the Broyden process...

                     ====================================
                        Begin Broyden opt. move =     29
                     ====================================

outcoor: Atomic coordinates (fractional):                   
   -0.09212574   -0.15527935    0.07774729   2       1  Ti
    0.40310630    0.38807236    0.75933348   2       2  Ti
    0.38602378    0.74700481    0.21491577   1       3  O
    0.85338910    0.37266306    0.02441714   1       4  O
    0.30030318    0.08768866    0.36265148   1       5  O
    0.60581708    0.66347523    0.45314095   1       6  O
 Kpoints in:          180 . Kpoints trimmed:          180

siesta: k-grid: Number of k-points =   180
siesta: k-grid: Cutoff (effective) =    15.368 Ang
siesta: k-grid: Supercell and displacements
siesta: k-grid:    9   0   0      0.000
siesta: k-grid:    0   8   0      0.500
siesta: k-grid:    0   0   5      0.000

superc: Internal auxiliary supercell:     7 x     7 x     5  =     245
superc: Number of atoms, orbitals, and projectors:   1470   6860  16660

outcell: Unit cell vectors (Ang):
        3.410519   -0.106162    0.141729
        1.159953    3.692699    0.197907
        1.122834    0.685990    6.007093

outcell: Cell vector modules (Ang)   :    3.415113    3.875653    6.149513
outcell: Cell angles (23,13,12) (deg):     77.8299     77.3253     74.2530
outcell: Cell volume (Ang**3)        :     75.4317
<dSpData1D:S at geom step 29
  <sparsity:sparsity for geom step 29
    nrows_g=28 nrows=28 sparsity=20.6888 nnzs=16220, refcount: 7>
  <dData1D:(new from dSpData1D) n=16220, refcount: 1>
refcount: 1>
New_DM. Step:    30
Re-using DM from previous geometries...
N DMs in history: 1
 DM extrapolation coefficients: 
1   1.00000
New DM after history re-use:
<dSpData2D:SpM extrapolated using coords
  <sparsity:sparsity for geom step 29
    nrows_g=28 nrows=28 sparsity=20.6888 nnzs=16220, refcount: 8>
  <dData2D:(temp array for extrapolation) n=16220 m=1, refcount: 1>
refcount: 1>
No. of atoms with KB's overlaping orbs in proc 0. Max # of overlaps:      77     144
New grid distribution:   1
           1       1:   10    1:   12    1:   18

InitMesh: MESH =    20 x    24 x    36 =       17280
InitMesh: (bp) =    10 x    12 x    18 =        2160
InitMesh: Mesh cutoff (required, used) =   100.000   102.158 Ry
ExtMesh (bp) on 0 =    58 x    64 x    66 =      244992
PhiOnMesh: Number of (b)points on node 0 =                 2160
PhiOnMesh: nlist on node 0 =                53182

        iscf     Eharris(eV)        E_KS(eV)     FreeEng(eV)     dDmax    Ef(eV) dHmax(eV)
   scf:    1    -2005.136431    -2005.239275    -2005.253303  0.027984 -2.964709  0.914895
   scf:    2    -2004.767269    -2005.190295    -2005.204444  0.058943 -2.963492  1.192372
   scf:    3    -2005.318165    -2005.314660    -2005.328841  0.034234 -2.963937  0.047587
   scf:    4    -2005.314774    -2005.314791    -2005.328993  0.001457 -2.964368  0.015148
   scf:    5    -2005.314822    -2005.314812    -2005.329020  0.000395 -2.964147  0.013866
   scf:    6    -2005.314827    -2005.314820    -2005.329031  0.000333 -2.963889  0.011099
   scf:    7    -2005.314828    -2005.314825    -2005.329042  0.000498 -2.963515  0.006167
   scf:    8    -2005.314824    -2005.314826    -2005.329045  0.000301 -2.963336  0.005228
   scf:    9    -2005.314825    -2005.314826    -2005.329049  0.000275 -2.963109  0.002123
   scf:   10    -2005.314824    -2005.314825    -2005.329050  0.000093 -2.963030  0.001464
   scf:   11    -2005.314824    -2005.314825    -2005.329050  0.000061 -2.963008  0.001222
   scf:   12    -2005.314824    -2005.314824    -2005.329050  0.000061 -2.962989  0.000984

SCF Convergence by DM+H criterion
max |DM_out - DM_in|         :     0.0000610623
max |H_out - H_in|      (eV) :     0.0009836781
SCF cycle converged after 12 iterations

Using DM_out to compute the final energy and forces
No. of atoms with KB's overlaping orbs in proc 0. Max # of overlaps:      77     144

siesta: E_KS(eV) =            -2005.3148

siesta: Atomic forces (eV/Ang):
     1   -0.343063    0.456541    1.497028
     2    0.374613    1.416785   -0.540064
     3   -0.582267    0.125834   -1.417135
     4   -0.333534   -0.066835    0.055923
     5   -0.308613    0.016574   -0.378725
     6    0.001541   -0.030544    2.719675
----------------------------------------
   Tot   -1.191324    1.918355    1.936703
----------------------------------------
   Max    2.719675
   Res    0.916667    sqrt( Sum f_i^2 / 3N )
----------------------------------------
   Max    2.719675    constrained

Stress-tensor-Voigt (kbar):      -54.56       22.84       29.08       61.64      -32.30     -115.69
(Free)E + p*V (eV/cell)    -2005.2876
Target enthalpy (eV/cell)    -2005.3291

siesta: Stress tensor (static) (eV/Ang**3):
        -0.034055    0.038487   -0.072217
         0.038471    0.014258   -0.020153
        -0.072208   -0.020160    0.018148

siesta: Pressure (static):          0.88075229  kBar

siesta: Stress tensor (total) (eV/Ang**3):
        -0.034055    0.038487   -0.072217
         0.038471    0.014258   -0.020153
        -0.072208   -0.020160    0.018148

siesta: Pressure (total):          0.88075229  kBar
Cycling the Broyden process...

                     ====================================
                        Begin Broyden opt. move =     30
                     ====================================

outcoor: Atomic coordinates (fractional):                   
   -0.09234103   -0.15498440    0.07838666   2       1  Ti
    0.40338285    0.38896410    0.75921162   2       2  Ti
    0.38568921    0.74679127    0.21473350   1       3  O
    0.85331727    0.37240252    0.02440388   1       4  O
    0.29994066    0.08768294    0.36221198   1       5  O
    0.60568194    0.66320190    0.45340920   1       6  O
 Kpoints in:          180 . Kpoints trimmed:          180

siesta: k-grid: Number of k-points =   180
siesta: k-grid: Cutoff (effective) =    15.371 Ang
siesta: k-grid: Supercell and displacements
siesta: k-grid:    9   0   0      0.000
siesta: k-grid:    0   8   0      0.500
siesta: k-grid:    0   0   5      0.000

superc: Internal auxiliary supercell:     7 x     7 x     5  =     245
superc: Number of atoms, orbitals, and projectors:   1470   6860  16660

outcell: Unit cell vectors (Ang):
        3.411190   -0.107031    0.143232
        1.159229    3.691939    0.198891
        1.125589    0.686384    6.005628

outcell: Cell vector modules (Ang)   :    3.415873    3.874763    6.148629
outcell: Cell angles (23,13,12) (deg):     77.8033     77.2751     74.2726
outcell: Cell volume (Ang**3)        :     75.4086
<dSpData1D:S at geom step 30
  <sparsity:sparsity for geom step 30
    nrows_g=28 nrows=28 sparsity=20.6888 nnzs=16220, refcount: 7>
  <dData1D:(new from dSpData1D) n=16220, refcount: 1>
refcount: 1>
New_DM. Step:    31
Re-using DM from previous geometries...
N DMs in history: 1
 DM extrapolation coefficients: 
1   1.00000
New DM after history re-use:
<dSpData2D:SpM extrapolated using coords
  <sparsity:sparsity for geom step 30
    nrows_g=28 nrows=28 sparsity=20.6888 nnzs=16220, refcount: 8>
  <dData2D:(temp array for extrapolation) n=16220 m=1, refcount: 1>
refcount: 1>
No. of atoms with KB's overlaping orbs in proc 0. Max # of overlaps:      77     144
New grid distribution:   1
           1       1:   10    1:   12    1:   18

InitMesh: MESH =    20 x    24 x    36 =       17280
InitMesh: (bp) =    10 x    12 x    18 =        2160
InitMesh: Mesh cutoff (required, used) =   100.000   102.239 Ry
ExtMesh (bp) on 0 =    58 x    64 x    66 =      244992
PhiOnMesh: Number of (b)points on node 0 =                 2160
PhiOnMesh: nlist on node 0 =                53190

        iscf     Eharris(eV)        E_KS(eV)     FreeEng(eV)     dDmax    Ef(eV) dHmax(eV)
   scf:    1    -2005.269025    -2005.311005    -2005.324857  0.019691 -2.967248  0.614480
   scf:    2    -2005.131450    -2005.294931    -2005.308883  0.035203 -2.964008  0.765209
   scf:    3    -2005.342540    -2005.342518    -2005.356479  0.021081 -2.964877  0.033136
   scf:    4    -2005.342648    -2005.342622    -2005.356586  0.000926 -2.965093  0.014122
   scf:    5    -2005.342647    -2005.342637    -2005.356608  0.000504 -2.964971  0.006578
   scf:    6    -2005.342649    -2005.342644    -2005.356620  0.000328 -2.964736  0.005273
   scf:    7    -2005.342647    -2005.342646    -2005.356627  0.000312 -2.964483  0.003039
   scf:    8    -2005.342644    -2005.342645    -2005.356631  0.000240 -2.964270  0.002268
   scf:    9    -2005.342641    -2005.342643    -2005.356632  0.000194 -2.964138  0.001330
   scf:   10    -2005.342641    -2005.342642    -2005.356633  0.000090 -2.964104  0.001576
   scf:   11    -2005.342641    -2005.342642    -2005.356633  0.000093 -2.964085  0.001066
   scf:   12    -2005.342641    -2005.342642    -2005.356633  0.000070 -2.964087  0.001310
   scf:   13    -2005.342641    -2005.342641    -2005.356633  0.000061 -2.964088  0.000943

SCF Convergence by DM+H criterion
max |DM_out - DM_in|         :     0.0000610275
max |H_out - H_in|      (eV) :     0.0009427208
SCF cycle converged after 13 iterations

Using DM_out to compute the final energy and forces
No. of atoms with KB's overlaping orbs in proc 0. Max # of overlaps:      77     144

siesta: E_KS(eV) =            -2005.3426

siesta: Atomic forces (eV/Ang):
     1   -0.374793    0.440181    1.494353
     2    0.395454    1.419650   -0.530065
     3   -0.643299    0.227134   -1.440498
     4   -0.262835    0.076546    0.029169
     5   -0.082821   -0.060440    0.094295
     6    0.102173    0.041176    2.870659
----------------------------------------
   Tot   -0.866121    2.144247    2.517913
----------------------------------------
   Max    2.870659
   Res    0.940111    sqrt( Sum f_i^2 / 3N )
----------------------------------------
   Max    2.870659    constrained

Stress-tensor-Voigt (kbar):      -56.17       24.42       32.46       62.75      -29.38     -116.47
(Free)E + p*V (eV/cell)    -2005.3678
Target enthalpy (eV/cell)    -2005.3566

siesta: Stress tensor (static) (eV/Ang**3):
        -0.035059    0.039169   -0.072708
         0.039166    0.015241   -0.018330
        -0.072693   -0.018338    0.020261

siesta: Pressure (static):         -0.23668000  kBar

siesta: Stress tensor (total) (eV/Ang**3):
        -0.035059    0.039169   -0.072708
         0.039166    0.015241   -0.018330
        -0.072693   -0.018338    0.020261

siesta: Pressure (total):         -0.23668000  kBar
Cycling the Broyden process...

outcoor: Final (unrelaxed) atomic coordinates (fractional): 
   -0.09234103   -0.15498440    0.07838666   2       1  Ti
    0.40338285    0.38896410    0.75921162   2       2  Ti
    0.38568921    0.74679127    0.21473350   1       3  O
    0.85331727    0.37240252    0.02440388   1       4  O
    0.29994066    0.08768294    0.36221198   1       5  O
    0.60568194    0.66320190    0.45340920   1       6  O

outcell: Unit cell vectors (Ang):
        3.411190   -0.107031    0.143232
        1.159229    3.691939    0.198891
        1.125589    0.686384    6.005628

outcell: Cell vector modules (Ang)   :    3.415873    3.874763    6.148629
outcell: Cell angles (23,13,12) (deg):     77.8033     77.2751     74.2726
outcell: Cell volume (Ang**3)        :     75.4086

siesta: Program's energy decomposition (eV):
siesta: Ebs     =      -344.321801
siesta: Eions   =      2709.615354
siesta: Ena     =       264.347485
siesta: Ekin    =      1575.431310
siesta: Enl     =      -555.379630
siesta: Eso     =         0.000000
siesta: Eldau   =         0.000000
siesta: DEna    =       -17.596663
siesta: DUscf   =         2.624457
siesta: DUext   =         0.000000
siesta: Exc     =      -565.154246
siesta: eta*DQ  =         0.000000
siesta: Emadel  =         0.000000
siesta: Emeta   =         0.000000
siesta: Emolmec =         0.000000
siesta: Ekinion =         0.000000
siesta: Eharris =     -2005.342641
siesta: Etot    =     -2005.342641
siesta: FreeEng =     -2005.356633

siesta: Final energy (eV):
siesta:  Band Struct. =    -344.321801
siesta:       Kinetic =    1575.431310
siesta:       Hartree =     799.124006
siesta:       Eldau   =       0.000000
siesta:       Eso     =       0.000000
siesta:    Ext. field =       0.000000
siesta:   Exch.-corr. =    -565.154246
siesta:  Ion-electron =   -2911.047632
siesta:       Ion-ion =    -903.696080
siesta:       Ekinion =       0.000000
siesta:         Total =   -2005.342641
siesta:         Fermi =      -2.964088

siesta: Atomic forces (eV/Ang):
siesta:      1   -0.374793    0.440181    1.494353
siesta:      2    0.395454    1.419650   -0.530065
siesta:      3   -0.643299    0.227134   -1.440498
siesta:      4   -0.262835    0.076546    0.029169
siesta:      5   -0.082821   -0.060440    0.094295
siesta:      6    0.102173    0.041176    2.870659
siesta: ----------------------------------------
siesta:    Tot   -0.866121    2.144247    2.517913

siesta: Stress tensor (static) (eV/Ang**3):
siesta:    -0.035059    0.039169   -0.072708
siesta:     0.039166    0.015241   -0.018330
siesta:    -0.072693   -0.018338    0.020261

siesta: Constrained stress tensor (static) (eV/Ang**3):
siesta:    -0.035059    0.039168   -0.072701
siesta:     0.039168    0.015241   -0.018334
siesta:    -0.072701   -0.018334    0.020261

siesta: Cell volume =         75.408578 Ang**3

siesta: Pressure (static):
siesta:                Solid            Molecule  Units
siesta:          -0.00000161         -0.00003039  Ry/Bohr**3
siesta:          -0.00014772         -0.00279033  eV/Ang**3
siesta:          -0.23668000         -4.47065497  kBar
(Free)E+ p_basis*V_orbitals  =       -2004.348402
(Free)Eharris+ p_basis*V_orbitals  =       -2004.348401

timer: Elapsed wall time (sec) =     722.855
timer: CPU execution times (sec):

Routine            Calls   Time/call    Tot.time        %
siesta                 1     716.796     716.796   100.00
Setup                  1       0.484       0.484     0.07
bands                  1       0.000       0.000     0.00
KSV_init               1       0.000       0.000     0.00
IterGeom              31      23.107     716.308    99.93
state_init            31       0.142       4.396     0.61
hsparse               31       0.029       0.896     0.13
overlap               31       0.010       0.304     0.04
Setup_H0              31       0.486      15.056     2.10
naefs                 62       0.001       0.052     0.01
MolMec                62       0.000       0.000     0.00
kinefsm               62       0.007       0.416     0.06
nlefsm                62       0.192      11.876     1.66
DHSCF_Init            31       0.306       9.492     1.32
DHSCF1                31       0.066       2.036     0.28
INITMESH              31       0.000       0.000     0.00
DHSCF2                31       0.241       7.456     1.04
REMESH                31       0.059       1.836     0.26
REORD               1711       0.000       0.036     0.01
PHION                 31       0.124       3.840     0.54
COMM_BSC            1339       0.000       0.024     0.00
POISON               654       0.002       1.380     0.19
fft                 1308       0.001       0.812     0.11
IterSCF              561       1.212     679.952    94.86
setup_H              592       0.108      63.688     8.89
DHSCF                623       0.118      73.432    10.24
DHSCF3               623       0.107      66.876     9.33
rhoofd               623       0.020      12.316     1.72
CellXC               623       0.069      43.184     6.02
cellXC               623       0.069      43.180     6.02
vmat                 623       0.015       9.652     1.35
compute_dm           561       1.096     615.104    85.81
diagon               561       1.095     614.332    85.71
c-eigval          102180       0.002     200.836    28.02
c-buildHS         102180       0.002     155.963    21.76
cdiag             204360       0.000      99.933    13.94
cdiag1            204360       0.000       6.152     0.86
cdiag2            204360       0.000      10.625     1.48
cdiag3            204360       0.000      77.153    10.76
cdiag4            204360       0.000       4.240     0.59
c-eigvec          102180       0.002     210.120    29.31
c-buildD          102180       0.002     198.484    27.69
MIXER                552       0.001       0.484     0.07
WriteM               583       0.001       0.452     0.06
PostSCF               31       0.544      16.872     2.35
DHSCF4                31       0.211       6.556     0.91
dfscf                 31       0.152       4.712     0.66
overfsm               31       0.007       0.204     0.03
state_analysis        31       0.000       0.000     0.00
siesta_move           31       0.000       0.000     0.00
Analysis               1       0.004       0.004     0.00
optical                1       0.000       0.000     0.00
  
>> End of run:  25-MAY-2017  16:48:56
