 vasp.5.4.4.18Apr17-6-g9f103f2a35 (build May 11 2017 01:06:49) complex           
 executed on             LinuxGNU date 2017.05.11  16:59:32
 running on    1 total cores
 distrk:  each k-point on    1 cores,    1 groups
 distr:  one band on NCORES_PER_BAND=   1 cores,    1 groups


--------------------------------------------------------------------------------------------------------


 INCAR:
 POTCAR:    PAW_PBE H 15Jun2001                   
 POTCAR:    PAW_PBE O 08Apr2002                   
 POTCAR:    PAW_PBE H 15Jun2001                   
   VRHFIN =H: ultrasoft test                                                    
   LEXCH  = PE                                                                  
   EATOM  =    12.4884 eV,    0.9179 Ry                                         
                                                                                
   TITEL  = PAW_PBE H 15Jun2001                                                 
   LULTRA =        F    use ultrasoft PP ?                                      
   IUNSCR =        0    unscreen: 0-lin 1-nonlin 2-no                           
   RPACOR =    0.000    partial core radius                                     
   POMASS =    1.000; ZVAL   =    1.000    mass and valenz                      
   RCORE  =    1.100    outmost cutoff radius                                   
   RWIGS  =    0.700; RWIGS  =    0.370    wigner-seitz radius (au A)           
   ENMAX  =  250.000; ENMIN  =  200.000 eV                                      
   RCLOC  =    0.701    cutoff for local pot                                    
   LCOR   =        T    correct aug charges                                     
   LPAW   =        T    paw PP                                                  
   EAUG   =  400.000                                                            
   RMAX   =    1.123    core radius for proj-oper                               
   RAUG   =    1.200    factor for augmentation sphere                          
   RDEP   =    1.112    radius for radial grids                                 
   RDEPT  =    0.926    core radius for aug-charge                              
                                                                                
   Atomic configuration                                                         
    2 entries                                                                   
     n  l   j            E        occ.                                          
     1  0  0.50        -6.4927   1.0000                                         
     2  1  0.50        -3.4015   0.0000                                         
   Description                                                                  
     l       E           TYP  RCUT    TYP  RCUT                                 
     0     -6.4927494     23  1.100                                             
     0      6.8029130     23  1.100                                             
     1     -4.0817478     23  1.100                                             
  local pseudopotential read in
  atomic valenz-charges read in
  non local Contribution for L=           0  read in
    real space projection operators read in
  non local Contribution for L=           0  read in
    real space projection operators read in
  non local Contribution for L=           1  read in
    real space projection operators read in
    PAW grid and wavefunctions read in

   number of l-projection  operators is LMAX  =           3
   number of lm-projection operators is LMMAX =           5

 POTCAR:    PAW_PBE O 08Apr2002                   
   VRHFIN =O: s2p4                                                              
   LEXCH  = PE                                                                  
   EATOM  =   432.3788 eV,   31.7789 Ry                                         
                                                                                
   TITEL  = PAW_PBE O 08Apr2002                                                 
   LULTRA =        F    use ultrasoft PP ?                                      
   IUNSCR =        1    unscreen: 0-lin 1-nonlin 2-no                           
   RPACOR =    1.200    partial core radius                                     
   POMASS =   16.000; ZVAL   =    6.000    mass and valenz                      
   RCORE  =    1.520    outmost cutoff radius                                   
   RWIGS  =    1.550; RWIGS  =    0.820    wigner-seitz radius (au A)           
   ENMAX  =  400.000; ENMIN  =  300.000 eV                                      
   ICORE  =        2    local potential                                         
   LCOR   =        T    correct aug charges                                     
   LPAW   =        T    paw PP                                                  
   EAUG   =  605.392                                                            
   DEXC   =    0.000                                                            
   RMAX   =    1.553    core radius for proj-oper                               
   RAUG   =    1.300    factor for augmentation sphere                          
   RDEP   =    1.550    radius for radial grids                                 
   RDEPT  =    1.329    core radius for aug-charge                              
                                                                                
   Atomic configuration                                                         
    4 entries                                                                   
     n  l   j            E        occ.                                          
     1  0  0.50      -514.6923   2.0000                                         
     2  0  0.50       -23.9615   2.0000                                         
     2  1  0.50        -9.0305   4.0000                                         
     3  2  1.50        -9.5241   0.0000                                         
   Description                                                                  
     l       E           TYP  RCUT    TYP  RCUT                                 
     0    -23.9615318     23  1.200                                             
     0     -9.5240782     23  1.200                                             
     1     -9.0304911     23  1.520                                             
     1      8.1634956     23  1.520                                             
     2     -9.5240782      7  1.500                                             
  local pseudopotential read in
  partial core-charges read in
  partial kinetic energy density read in
  kinetic energy density of atom read in
  atomic valenz-charges read in
  non local Contribution for L=           0  read in
    real space projection operators read in
  non local Contribution for L=           0  read in
    real space projection operators read in
  non local Contribution for L=           1  read in
    real space projection operators read in
  non local Contribution for L=           1  read in
    real space projection operators read in
    PAW grid and wavefunctions read in

   number of l-projection  operators is LMAX  =           4
   number of lm-projection operators is LMMAX =           8

  PAW_PBE H 15Jun2001                   :
 energy of atom  1       EATOM=  -12.4884
 kinetic energy error for atom=    0.0098 (will be added to EATOM!!)
  PAW_PBE O 08Apr2002                   :
 energy of atom  2       EATOM= -432.3788
 kinetic energy error for atom=    0.1156 (will be added to EATOM!!)


 POSCAR: H2O1 /home/patrick/xtalopt-runs/VASP/tes
  positions in direct lattice
  No initial velocities read in
 exchange correlation table for  LEXCH =        8
   RHO(1)=    0.500       N(1)  =     2000
   RHO(2)=  100.500       N(2)  =     4000



--------------------------------------------------------------------------------------------------------


 ion  position               nearest neighbor table
   1  0.336  0.441  0.018-   3 1.21   3 1.29   3 1.41
   2  0.770  0.118  0.435-   3 1.27   3 1.41
   3  0.000  0.000  0.000-   1 1.21   2 1.27   1 1.29   2 1.41   1 1.41


IMPORTANT INFORMATION: All symmetrisations will be switched off!
NOSYMM: (Re-)initialisation of all symmetry stuff for point group C_1.



 KPOINTS: Automatic generation                    

Automatic generation of k-mesh.
 generate k-points for:   13    6    6
Space group operators:
 irot       det(A)        alpha          n_x          n_y          n_z        tau_x        tau_y        tau_z
    1     1.000000     0.000001     1.000000     0.000000     0.000000     0.000000     0.000000     0.000000
 
 Subroutine IBZKPT returns following result:
 ===========================================
 
 Found    236 irreducible k-points:
 
 Following reciprocal coordinates:
            Coordinates               Weight
  0.000000  0.000000  0.000000      1.000000
  0.076923  0.000000  0.000000      2.000000
  0.153846  0.000000  0.000000      2.000000
  0.230769  0.000000  0.000000      2.000000
  0.307692  0.000000  0.000000      2.000000
  0.384615  0.000000  0.000000      2.000000
  0.461538  0.000000  0.000000      2.000000
  0.000000  0.166667  0.000000      2.000000
  0.076923  0.166667  0.000000      2.000000
  0.153846  0.166667  0.000000      2.000000
  0.230769  0.166667  0.000000      2.000000
  0.307692  0.166667  0.000000      2.000000
  0.384615  0.166667  0.000000      2.000000
  0.461538  0.166667  0.000000      2.000000
 -0.461538  0.166667  0.000000      2.000000
 -0.384615  0.166667  0.000000      2.000000
 -0.307692  0.166667  0.000000      2.000000
 -0.230769  0.166667  0.000000      2.000000
 -0.153846  0.166667  0.000000      2.000000
 -0.076923  0.166667  0.000000      2.000000
  0.000000  0.333333  0.000000      2.000000
  0.076923  0.333333  0.000000      2.000000
  0.153846  0.333333  0.000000      2.000000
  0.230769  0.333333  0.000000      2.000000
  0.307692  0.333333  0.000000      2.000000
  0.384615  0.333333  0.000000      2.000000
  0.461538  0.333333  0.000000      2.000000
 -0.461538  0.333333  0.000000      2.000000
 -0.384615  0.333333  0.000000      2.000000
 -0.307692  0.333333  0.000000      2.000000
 -0.230769  0.333333  0.000000      2.000000
 -0.153846  0.333333  0.000000      2.000000
 -0.076923  0.333333  0.000000      2.000000
  0.000000  0.500000  0.000000      1.000000
  0.076923  0.500000  0.000000      2.000000
  0.153846  0.500000  0.000000      2.000000
  0.230769  0.500000  0.000000      2.000000
  0.307692  0.500000  0.000000      2.000000
  0.384615  0.500000  0.000000      2.000000
  0.461538  0.500000  0.000000      2.000000
  0.000000  0.000000  0.166667      2.000000
  0.076923  0.000000  0.166667      2.000000
  0.153846  0.000000  0.166667      2.000000
  0.230769  0.000000  0.166667      2.000000
  0.307692  0.000000  0.166667      2.000000
  0.384615  0.000000  0.166667      2.000000
  0.461538  0.000000  0.166667      2.000000
 -0.461538  0.000000  0.166667      2.000000
 -0.384615  0.000000  0.166667      2.000000
 -0.307692  0.000000  0.166667      2.000000
 -0.230769  0.000000  0.166667      2.000000
 -0.153846  0.000000  0.166667      2.000000
 -0.076923  0.000000  0.166667      2.000000
  0.000000  0.166667  0.166667      2.000000
  0.076923  0.166667  0.166667      2.000000
  0.153846  0.166667  0.166667      2.000000
  0.230769  0.166667  0.166667      2.000000
  0.307692  0.166667  0.166667      2.000000
  0.384615  0.166667  0.166667      2.000000
  0.461538  0.166667  0.166667      2.000000
 -0.461538  0.166667  0.166667      2.000000
 -0.384615  0.166667  0.166667      2.000000
 -0.307692  0.166667  0.166667      2.000000
 -0.230769  0.166667  0.166667      2.000000
 -0.153846  0.166667  0.166667      2.000000
 -0.076923  0.166667  0.166667      2.000000
  0.000000  0.333333  0.166667      2.000000
  0.076923  0.333333  0.166667      2.000000
  0.153846  0.333333  0.166667      2.000000
  0.230769  0.333333  0.166667      2.000000
  0.307692  0.333333  0.166667      2.000000
  0.384615  0.333333  0.166667      2.000000
  0.461538  0.333333  0.166667      2.000000
 -0.461538  0.333333  0.166667      2.000000
 -0.384615  0.333333  0.166667      2.000000
 -0.307692  0.333333  0.166667      2.000000
 -0.230769  0.333333  0.166667      2.000000
 -0.153846  0.333333  0.166667      2.000000
 -0.076923  0.333333  0.166667      2.000000
  0.000000  0.500000  0.166667      2.000000
  0.076923  0.500000  0.166667      2.000000
  0.153846  0.500000  0.166667      2.000000
  0.230769  0.500000  0.166667      2.000000
  0.307692  0.500000  0.166667      2.000000
  0.384615  0.500000  0.166667      2.000000
  0.461538  0.500000  0.166667      2.000000
 -0.461538  0.500000  0.166667      2.000000
 -0.384615  0.500000  0.166667      2.000000
 -0.307692  0.500000  0.166667      2.000000
 -0.230769  0.500000  0.166667      2.000000
 -0.153846  0.500000  0.166667      2.000000
 -0.076923  0.500000  0.166667      2.000000
  0.000000 -0.333333  0.166667      2.000000
  0.076923 -0.333333  0.166667      2.000000
  0.153846 -0.333333  0.166667      2.000000
  0.230769 -0.333333  0.166667      2.000000
  0.307692 -0.333333  0.166667      2.000000
  0.384615 -0.333333  0.166667      2.000000
  0.461538 -0.333333  0.166667      2.000000
 -0.461538 -0.333333  0.166667      2.000000
 -0.384615 -0.333333  0.166667      2.000000
 -0.307692 -0.333333  0.166667      2.000000
 -0.230769 -0.333333  0.166667      2.000000
 -0.153846 -0.333333  0.166667      2.000000
 -0.076923 -0.333333  0.166667      2.000000
  0.000000 -0.166667  0.166667      2.000000
  0.076923 -0.166667  0.166667      2.000000
  0.153846 -0.166667  0.166667      2.000000
  0.230769 -0.166667  0.166667      2.000000
  0.307692 -0.166667  0.166667      2.000000
  0.384615 -0.166667  0.166667      2.000000
  0.461538 -0.166667  0.166667      2.000000
 -0.461538 -0.166667  0.166667      2.000000
 -0.384615 -0.166667  0.166667      2.000000
 -0.307692 -0.166667  0.166667      2.000000
 -0.230769 -0.166667  0.166667      2.000000
 -0.153846 -0.166667  0.166667      2.000000
 -0.076923 -0.166667  0.166667      2.000000
  0.000000  0.000000  0.333333      2.000000
  0.076923  0.000000  0.333333      2.000000
  0.153846  0.000000  0.333333      2.000000
  0.230769  0.000000  0.333333      2.000000
  0.307692  0.000000  0.333333      2.000000
  0.384615  0.000000  0.333333      2.000000
  0.461538  0.000000  0.333333      2.000000
 -0.461538  0.000000  0.333333      2.000000
 -0.384615  0.000000  0.333333      2.000000
 -0.307692  0.000000  0.333333      2.000000
 -0.230769  0.000000  0.333333      2.000000
 -0.153846  0.000000  0.333333      2.000000
 -0.076923  0.000000  0.333333      2.000000
  0.000000  0.166667  0.333333      2.000000
  0.076923  0.166667  0.333333      2.000000
  0.153846  0.166667  0.333333      2.000000
  0.230769  0.166667  0.333333      2.000000
  0.307692  0.166667  0.333333      2.000000
  0.384615  0.166667  0.333333      2.000000
  0.461538  0.166667  0.333333      2.000000
 -0.461538  0.166667  0.333333      2.000000
 -0.384615  0.166667  0.333333      2.000000
 -0.307692  0.166667  0.333333      2.000000
 -0.230769  0.166667  0.333333      2.000000
 -0.153846  0.166667  0.333333      2.000000
 -0.076923  0.166667  0.333333      2.000000
  0.000000  0.333333  0.333333      2.000000
  0.076923  0.333333  0.333333      2.000000
  0.153846  0.333333  0.333333      2.000000
  0.230769  0.333333  0.333333      2.000000
  0.307692  0.333333  0.333333      2.000000
  0.384615  0.333333  0.333333      2.000000
  0.461538  0.333333  0.333333      2.000000
 -0.461538  0.333333  0.333333      2.000000
 -0.384615  0.333333  0.333333      2.000000
 -0.307692  0.333333  0.333333      2.000000
 -0.230769  0.333333  0.333333      2.000000
 -0.153846  0.333333  0.333333      2.000000
 -0.076923  0.333333  0.333333      2.000000
  0.000000  0.500000  0.333333      2.000000
  0.076923  0.500000  0.333333      2.000000
  0.153846  0.500000  0.333333      2.000000
  0.230769  0.500000  0.333333      2.000000
  0.307692  0.500000  0.333333      2.000000
  0.384615  0.500000  0.333333      2.000000
  0.461538  0.500000  0.333333      2.000000
 -0.461538  0.500000  0.333333      2.000000
 -0.384615  0.500000  0.333333      2.000000
 -0.307692  0.500000  0.333333      2.000000
 -0.230769  0.500000  0.333333      2.000000
 -0.153846  0.500000  0.333333      2.000000
 -0.076923  0.500000  0.333333      2.000000
  0.000000 -0.333333  0.333333      2.000000
  0.076923 -0.333333  0.333333      2.000000
  0.153846 -0.333333  0.333333      2.000000
  0.230769 -0.333333  0.333333      2.000000
  0.307692 -0.333333  0.333333      2.000000
  0.384615 -0.333333  0.333333      2.000000
  0.461538 -0.333333  0.333333      2.000000
 -0.461538 -0.333333  0.333333      2.000000
 -0.384615 -0.333333  0.333333      2.000000
 -0.307692 -0.333333  0.333333      2.000000
 -0.230769 -0.333333  0.333333      2.000000
 -0.153846 -0.333333  0.333333      2.000000
 -0.076923 -0.333333  0.333333      2.000000
  0.000000 -0.166667  0.333333      2.000000
  0.076923 -0.166667  0.333333      2.000000
  0.153846 -0.166667  0.333333      2.000000
  0.230769 -0.166667  0.333333      2.000000
  0.307692 -0.166667  0.333333      2.000000
  0.384615 -0.166667  0.333333      2.000000
  0.461538 -0.166667  0.333333      2.000000
 -0.461538 -0.166667  0.333333      2.000000
 -0.384615 -0.166667  0.333333      2.000000
 -0.307692 -0.166667  0.333333      2.000000
 -0.230769 -0.166667  0.333333      2.000000
 -0.153846 -0.166667  0.333333      2.000000
 -0.076923 -0.166667  0.333333      2.000000
  0.000000  0.000000  0.500000      1.000000
  0.076923  0.000000  0.500000      2.000000
  0.153846  0.000000  0.500000      2.000000
  0.230769  0.000000  0.500000      2.000000
  0.307692  0.000000  0.500000      2.000000
  0.384615  0.000000  0.500000      2.000000
  0.461538  0.000000  0.500000      2.000000
  0.000000  0.166667  0.500000      2.000000
  0.076923  0.166667  0.500000      2.000000
  0.153846  0.166667  0.500000      2.000000
  0.230769  0.166667  0.500000      2.000000
  0.307692  0.166667  0.500000      2.000000
  0.384615  0.166667  0.500000      2.000000
  0.461538  0.166667  0.500000      2.000000
 -0.461538  0.166667  0.500000      2.000000
 -0.384615  0.166667  0.500000      2.000000
 -0.307692  0.166667  0.500000      2.000000
 -0.230769  0.166667  0.500000      2.000000
 -0.153846  0.166667  0.500000      2.000000
 -0.076923  0.166667  0.500000      2.000000
  0.000000  0.333333  0.500000      2.000000
  0.076923  0.333333  0.500000      2.000000
  0.153846  0.333333  0.500000      2.000000
  0.230769  0.333333  0.500000      2.000000
  0.307692  0.333333  0.500000      2.000000
  0.384615  0.333333  0.500000      2.000000
  0.461538  0.333333  0.500000      2.000000
 -0.461538  0.333333  0.500000      2.000000
 -0.384615  0.333333  0.500000      2.000000
 -0.307692  0.333333  0.500000      2.000000
 -0.230769  0.333333  0.500000      2.000000
 -0.153846  0.333333  0.500000      2.000000
 -0.076923  0.333333  0.500000      2.000000
  0.000000  0.500000  0.500000      1.000000
  0.076923  0.500000  0.500000      2.000000
  0.153846  0.500000  0.500000      2.000000
  0.230769  0.500000  0.500000      2.000000
  0.307692  0.500000  0.500000      2.000000
  0.384615  0.500000  0.500000      2.000000
  0.461538  0.500000  0.500000      2.000000
 
 Following cartesian coordinates:
            Coordinates               Weight
  0.000000  0.000000  0.000000      1.000000
  0.073031 -0.004693 -0.011192      2.000000
  0.146061 -0.009386 -0.022384      2.000000
  0.219092 -0.014079 -0.033577      2.000000
  0.292122 -0.018772 -0.044769      2.000000
  0.365153 -0.023464 -0.055961      2.000000
  0.438183 -0.028157 -0.067153      2.000000
  0.000000  0.066216 -0.033658      2.000000
  0.073031  0.061523 -0.044850      2.000000
  0.146061  0.056830 -0.056042      2.000000
  0.219092  0.052137 -0.067235      2.000000
  0.292122  0.047444 -0.078427      2.000000
  0.365153  0.042752 -0.089619      2.000000
  0.438183  0.038059 -0.100811      2.000000
 -0.438183  0.094373  0.033495      2.000000
 -0.365153  0.089680  0.022303      2.000000
 -0.292122  0.084987  0.011111      2.000000
 -0.219092  0.080295 -0.000081      2.000000
 -0.146061  0.075602 -0.011274      2.000000
 -0.073031  0.070909 -0.022466      2.000000
  0.000000  0.132432 -0.067316      2.000000
  0.073031  0.127739 -0.078508      2.000000
  0.146061  0.123046 -0.089700      2.000000
  0.219092  0.118353 -0.100892      2.000000
  0.292122  0.113660 -0.112085      2.000000
  0.365153  0.108967 -0.123277      2.000000
  0.438183  0.104275 -0.134469      2.000000
 -0.438183  0.160589 -0.000163      2.000000
 -0.365153  0.155896 -0.011355      2.000000
 -0.292122  0.151203 -0.022547      2.000000
 -0.219092  0.146511 -0.033739      2.000000
 -0.146061  0.141818 -0.044931      2.000000
 -0.073031  0.137125 -0.056124      2.000000
  0.000000  0.198648 -0.100974      1.000000
  0.073031  0.193955 -0.112166      2.000000
  0.146061  0.189262 -0.123358      2.000000
  0.219092  0.184569 -0.134550      2.000000
  0.292122  0.179876 -0.145743      2.000000
  0.365153  0.175183 -0.156935      2.000000
  0.438183  0.170491 -0.168127      2.000000
  0.000000  0.000000  0.073461      2.000000
  0.073031 -0.004693  0.062268      2.000000
  0.146061 -0.009386  0.051076      2.000000
  0.219092 -0.014079  0.039884      2.000000
  0.292122 -0.018772  0.028692      2.000000
  0.365153 -0.023464  0.017500      2.000000
  0.438183 -0.028157  0.006307      2.000000
 -0.438183  0.028157  0.140614      2.000000
 -0.365153  0.023464  0.129421      2.000000
 -0.292122  0.018772  0.118229      2.000000
 -0.219092  0.014079  0.107037      2.000000
 -0.146061  0.009386  0.095845      2.000000
 -0.073031  0.004693  0.084653      2.000000
  0.000000  0.066216  0.039803      2.000000
  0.073031  0.061523  0.028610      2.000000
  0.146061  0.056830  0.017418      2.000000
  0.219092  0.052137  0.006226      2.000000
  0.292122  0.047444 -0.004966      2.000000
  0.365153  0.042752 -0.016158      2.000000
  0.438183  0.038059 -0.027351      2.000000
 -0.438183  0.094373  0.106956      2.000000
 -0.365153  0.089680  0.095764      2.000000
 -0.292122  0.084987  0.084571      2.000000
 -0.219092  0.080295  0.073379      2.000000
 -0.146061  0.075602  0.062187      2.000000
 -0.073031  0.070909  0.050995      2.000000
  0.000000  0.132432  0.006145      2.000000
  0.073031  0.127739 -0.005048      2.000000
  0.146061  0.123046 -0.016240      2.000000
  0.219092  0.118353 -0.027432      2.000000
  0.292122  0.113660 -0.038624      2.000000
  0.365153  0.108967 -0.049816      2.000000
  0.438183  0.104275 -0.061009      2.000000
 -0.438183  0.160589  0.073298      2.000000
 -0.365153  0.155896  0.062106      2.000000
 -0.292122  0.151203  0.050913      2.000000
 -0.219092  0.146511  0.039721      2.000000
 -0.146061  0.141818  0.028529      2.000000
 -0.073031  0.137125  0.017337      2.000000
  0.000000  0.198648 -0.027513      2.000000
  0.073031  0.193955 -0.038705      2.000000
  0.146061  0.189262 -0.049898      2.000000
  0.219092  0.184569 -0.061090      2.000000
  0.292122  0.179876 -0.072282      2.000000
  0.365153  0.175183 -0.083474      2.000000
  0.438183  0.170491 -0.094666      2.000000
 -0.438183  0.226805  0.039640      2.000000
 -0.365153  0.222112  0.028448      2.000000
 -0.292122  0.217419  0.017255      2.000000
 -0.219092  0.212727  0.006063      2.000000
 -0.146061  0.208034 -0.005129      2.000000
 -0.073031  0.203341 -0.016321      2.000000
  0.000000 -0.132432  0.140776      2.000000
  0.073031 -0.137125  0.129584      2.000000
  0.146061 -0.141818  0.118392      2.000000
  0.219092 -0.146511  0.107200      2.000000
  0.292122 -0.151203  0.096008      2.000000
  0.365153 -0.155896  0.084815      2.000000
  0.438183 -0.160589  0.073623      2.000000
 -0.438183 -0.104275  0.207930      2.000000
 -0.365153 -0.108967  0.196737      2.000000
 -0.292122 -0.113660  0.185545      2.000000
 -0.219092 -0.118353  0.174353      2.000000
 -0.146061 -0.123046  0.163161      2.000000
 -0.073031 -0.127739  0.151969      2.000000
  0.000000 -0.066216  0.107118      2.000000
  0.073031 -0.070909  0.095926      2.000000
  0.146061 -0.075602  0.084734      2.000000
  0.219092 -0.080295  0.073542      2.000000
  0.292122 -0.084987  0.062350      2.000000
  0.365153 -0.089680  0.051157      2.000000
  0.438183 -0.094373  0.039965      2.000000
 -0.438183 -0.038059  0.174272      2.000000
 -0.365153 -0.042752  0.163079      2.000000
 -0.292122 -0.047444  0.151887      2.000000
 -0.219092 -0.052137  0.140695      2.000000
 -0.146061 -0.056830  0.129503      2.000000
 -0.073031 -0.061523  0.118311      2.000000
  0.000000  0.000000  0.146921      2.000000
  0.073031 -0.004693  0.135729      2.000000
  0.146061 -0.009386  0.124537      2.000000
  0.219092 -0.014079  0.113344      2.000000
  0.292122 -0.018772  0.102152      2.000000
  0.365153 -0.023464  0.090960      2.000000
  0.438183 -0.028157  0.079768      2.000000
 -0.438183  0.028157  0.214074      2.000000
 -0.365153  0.023464  0.202882      2.000000
 -0.292122  0.018772  0.191690      2.000000
 -0.219092  0.014079  0.180498      2.000000
 -0.146061  0.009386  0.169305      2.000000
 -0.073031  0.004693  0.158113      2.000000
  0.000000  0.066216  0.113263      2.000000
  0.073031  0.061523  0.102071      2.000000
  0.146061  0.056830  0.090879      2.000000
  0.219092  0.052137  0.079686      2.000000
  0.292122  0.047444  0.068494      2.000000
  0.365153  0.042752  0.057302      2.000000
  0.438183  0.038059  0.046110      2.000000
 -0.438183  0.094373  0.180416      2.000000
 -0.365153  0.089680  0.169224      2.000000
 -0.292122  0.084987  0.158032      2.000000
 -0.219092  0.080295  0.146840      2.000000
 -0.146061  0.075602  0.135647      2.000000
 -0.073031  0.070909  0.124455      2.000000
  0.000000  0.132432  0.079605      2.000000
  0.073031  0.127739  0.068413      2.000000
  0.146061  0.123046  0.057221      2.000000
  0.219092  0.118353  0.046029      2.000000
  0.292122  0.113660  0.034836      2.000000
  0.365153  0.108967  0.023644      2.000000
  0.438183  0.104275  0.012452      2.000000
 -0.438183  0.160589  0.146758      2.000000
 -0.365153  0.155896  0.135566      2.000000
 -0.292122  0.151203  0.124374      2.000000
 -0.219092  0.146511  0.113182      2.000000
 -0.146061  0.141818  0.101990      2.000000
 -0.073031  0.137125  0.090797      2.000000
  0.000000  0.198648  0.045947      2.000000
  0.073031  0.193955  0.034755      2.000000
  0.146061  0.189262  0.023563      2.000000
  0.219092  0.184569  0.012371      2.000000
  0.292122  0.179876  0.001178      2.000000
  0.365153  0.175183 -0.010014      2.000000
  0.438183  0.170491 -0.021206      2.000000
 -0.438183  0.226805  0.113100      2.000000
 -0.365153  0.222112  0.101908      2.000000
 -0.292122  0.217419  0.090716      2.000000
 -0.219092  0.212727  0.079524      2.000000
 -0.146061  0.208034  0.068332      2.000000
 -0.073031  0.203341  0.057139      2.000000
  0.000000 -0.132432  0.214237      2.000000
  0.073031 -0.137125  0.203045      2.000000
  0.146061 -0.141818  0.191852      2.000000
  0.219092 -0.146511  0.180660      2.000000
  0.292122 -0.151203  0.169468      2.000000
  0.365153 -0.155896  0.158276      2.000000
  0.438183 -0.160589  0.147084      2.000000
 -0.438183 -0.104275  0.281390      2.000000
 -0.365153 -0.108967  0.270198      2.000000
 -0.292122 -0.113660  0.259006      2.000000
 -0.219092 -0.118353  0.247813      2.000000
 -0.146061 -0.123046  0.236621      2.000000
 -0.073031 -0.127739  0.225429      2.000000
  0.000000 -0.066216  0.180579      2.000000
  0.073031 -0.070909  0.169387      2.000000
  0.146061 -0.075602  0.158195      2.000000
  0.219092 -0.080295  0.147002      2.000000
  0.292122 -0.084987  0.135810      2.000000
  0.365153 -0.089680  0.124618      2.000000
  0.438183 -0.094373  0.113426      2.000000
 -0.438183 -0.038059  0.247732      2.000000
 -0.365153 -0.042752  0.236540      2.000000
 -0.292122 -0.047444  0.225348      2.000000
 -0.219092 -0.052137  0.214156      2.000000
 -0.146061 -0.056830  0.202963      2.000000
 -0.073031 -0.061523  0.191771      2.000000
  0.000000  0.000000  0.220382      1.000000
  0.073031 -0.004693  0.209189      2.000000
  0.146061 -0.009386  0.197997      2.000000
  0.219092 -0.014079  0.186805      2.000000
  0.292122 -0.018772  0.175613      2.000000
  0.365153 -0.023464  0.164421      2.000000
  0.438183 -0.028157  0.153228      2.000000
  0.000000  0.066216  0.186724      2.000000
  0.073031  0.061523  0.175531      2.000000
  0.146061  0.056830  0.164339      2.000000
  0.219092  0.052137  0.153147      2.000000
  0.292122  0.047444  0.141955      2.000000
  0.365153  0.042752  0.130763      2.000000
  0.438183  0.038059  0.119570      2.000000
 -0.438183  0.094373  0.253877      2.000000
 -0.365153  0.089680  0.242685      2.000000
 -0.292122  0.084987  0.231492      2.000000
 -0.219092  0.080295  0.220300      2.000000
 -0.146061  0.075602  0.209108      2.000000
 -0.073031  0.070909  0.197916      2.000000
  0.000000  0.132432  0.153066      2.000000
  0.073031  0.127739  0.141873      2.000000
  0.146061  0.123046  0.130681      2.000000
  0.219092  0.118353  0.119489      2.000000
  0.292122  0.113660  0.108297      2.000000
  0.365153  0.108967  0.097105      2.000000
  0.438183  0.104275  0.085912      2.000000
 -0.438183  0.160589  0.220219      2.000000
 -0.365153  0.155896  0.209027      2.000000
 -0.292122  0.151203  0.197834      2.000000
 -0.219092  0.146511  0.186642      2.000000
 -0.146061  0.141818  0.175450      2.000000
 -0.073031  0.137125  0.164258      2.000000
  0.000000  0.198648  0.119408      1.000000
  0.073031  0.193955  0.108216      2.000000
  0.146061  0.189262  0.097023      2.000000
  0.219092  0.184569  0.085831      2.000000
  0.292122  0.179876  0.074639      2.000000
  0.365153  0.175183  0.063447      2.000000
  0.438183  0.170491  0.052255      2.000000
 


--------------------------------------------------------------------------------------------------------




 Dimension of arrays:
   k-points           NKPTS =    236   k-points in BZ     NKDIM =    236   number of bands    NBANDS=      8
   number of dos      NEDOS =    301   number of ions     NIONS =      3
   non local maximal  LDIM  =      4   non local SUM 2l+1 LMDIM =      8
   total plane-waves  NPLWV =   1008
   max r-space proj   IRMAX =      1   max aug-charges    IRDMAX=   1062
   dimension x,y,z NGX =     6 NGY =   12 NGZ =   14
   dimension x,y,z NGXF=     8 NGYF=   20 NGZF=   20
   support grid    NGXF=     8 NGYF=   20 NGZF=   20
   ions per type =               2   1
   NGX,Y,Z   is equivalent  to a cutoff of   9.47,  7.91,  9.02 a.u.
   NGXF,Y,Z  is equivalent  to a cutoff of  12.63, 13.18, 12.89 a.u.

 SYSTEM =  unknown system                          
 POSCAR =  H2O1 /home/patrick/xtalopt-runs/VASP/tes

 Startparameter for this run:
   NWRITE =      2    write-flag & timer
   PREC   = med       normal or accurate (medium, high low for compatibility)
   ISTART =      0    job   : 0-new  1-cont  2-samecut
   ICHARG =      2    charge: 1-file 2-atom 10-const
   ISPIN  =      1    spin polarized calculation?
   LNONCOLLINEAR =      F non collinear calculations
   LSORBIT =      F    spin-orbit coupling
   INIWAV =      1    electr: 0-lowe 1-rand  2-diag
   LASPH  =      F    aspherical Exc in radial PAW
   METAGGA=      F    non-selfconsistent MetaGGA calc.

 Electronic Relaxation 1
   ENCUT  =  400.0 eV  29.40 Ry    5.42 a.u.   1.72  4.11  4.21*2*pi/ulx,y,z
   ENINI  =  400.0     initial cutoff
   ENAUG  =  605.4 eV  augmentation charge cutoff
   NELM   =     60;   NELMIN=  5; NELMDL= -5     # of ELM steps 
   EDIFF  = 0.1E-02   stopping-criterion for ELM
   LREAL  =      F    real-space projection
   NLSPLINE    = F    spline interpolate recip. space projectors
   LCOMPAT=      F    compatible to vasp.4.4
   GGA_COMPAT  = T    GGA compatible to vasp.4.4-vasp.4.6
   LMAXPAW     = -100 max onsite density
   LMAXMIX     =    2 max onsite mixed and CHGCAR
   VOSKOWN=      0    Vosko Wilk Nusair interpolation
   ROPT   =    0.00000   0.00000
 Ionic relaxation
   EDIFFG = -.5E+00   stopping-criterion for IOM
   NSW    =     70    number of steps for IOM
   NBLOCK =      1;   KBLOCK =     70    inner block; outer block 
   IBRION =      2    ionic relax: 0-MD 1-quasi-New 2-CG
   NFREE  =      1    steps in history (QN), initial steepest desc. (CG)
   ISIF   =      2    stress and relaxation
   IWAVPR =     11    prediction:  0-non 1-charg 2-wave 3-comb
   ISYM   =      0    0-nonsym 1-usesym 2-fastsym
   LCORR  =      T    Harris-Foulkes like correction to forces

   POTIM  = 0.5000    time-step for ionic-motion
   TEIN   =    0.0    initial temperature
   TEBEG  =    0.0;   TEEND  =   0.0 temperature during run
   SMASS  =  -3.00    Nose mass-parameter (am)
   estimated Nose-frequenzy (Omega)   =  0.10E-29 period in steps =****** mass=  -0.254E-28a.u.
   SCALEE = 1.0000    scale energy and forces
   NPACO  =    256;   APACO  = 16.0  distance and # of slots for P.C.
   PSTRESS= ****** pullay stress

  Mass of Ions in am
   POMASS =   1.00 16.00
  Ionic Valenz
   ZVAL   =   1.00  6.00
  Atomic Wigner-Seitz radii
   RWIGS  =  -1.00 -1.00
  virtual crystal weights 
   VCA    =   1.00  1.00
   NELECT =       8.0000    total number of electrons
   NUPDOWN=      -1.0000    fix difference up-down

 DOS related values:
   EMIN   =  10.00;   EMAX   =-10.00  energy-range for DOS
   EFERMI =   0.00
   ISMEAR =     1;   SIGMA  =   0.20  broadening in eV -4-tet -1-fermi 0-gaus

 Electronic relaxation 2 (details)
   IALGO  =     38    algorithm
   LDIAG  =      T    sub-space diagonalisation (order eigenvalues)
   LSUBROT=      F    optimize rotation matrix (better conditioning)
   TURBO    =      0    0=normal 1=particle mesh
   IRESTART =      0    0=no restart 2=restart with 2 vectors
   NREBOOT  =      0    no. of reboots
   NMIN     =      0    reboot dimension
   EREF     =   0.00    reference energy to select bands
   IMIX   =      4    mixing-type and parameters
     AMIX     =   0.40;   BMIX     =  1.00
     AMIX_MAG =   1.60;   BMIX_MAG =  1.00
     AMIN     =   0.10
     WC   =   100.;   INIMIX=   1;  MIXPRE=   1;  MAXMIX= -45

 Intra band minimization:
   WEIMIN = 0.0010     energy-eigenvalue tresh-hold
   EBREAK =  0.31E-04  absolut break condition
   DEPER  =   0.30     relativ break condition  

   TIME   =   0.40     timestep for ELM

  volume/ion in A,a.u.               =       2.00        13.53
  Fermi-wavevector in a.u.,A,eV,Ry     =   1.800365  3.402196 44.100738  3.241313
  Thomas-Fermi vector in A             =   2.861107

 Write flags
   LWAVE        =      F    write WAVECAR
   LDOWNSAMPLE  =      F    k-point downsampling of WAVECAR
   LCHARG       =      F    write CHGCAR
   LVTOT        =      F    write LOCPOT, total local potential
   LVHAR        =      F    write LOCPOT, Hartree potential only
   LELF         =      F    write electronic localiz. function (ELF)
   LORBIT       =      0    0 simple, 1 ext, 2 COOP (PROOUT), +10 PAW based schemes


 Dipole corrections
   LMONO  =      F    monopole corrections only (constant potential shift)
   LDIPOL =      F    correct potential (dipole corrections)
   IDIPOL =      0    1-x, 2-y, 3-z, 4-all directions 
   EPSILON=  1.0000000 bulk dielectric constant

 Exchange correlation treatment:
   GGA     =    --    GGA type
   LEXCH   =     8    internal setting for exchange type
   VOSKOWN=      0    Vosko Wilk Nusair interpolation
   LHFCALC =     F    Hartree Fock is set to
   LHFONE  =     F    Hartree Fock one center treatment
   AEXX    =    0.0000 exact exchange contribution

 Linear response parameters
   LEPSILON=     F    determine dielectric tensor
   LRPA    =     F    only Hartree local field effects (RPA)
   LNABLA  =     F    use nabla operator in PAW spheres
   LVEL    =     F    velocity operator in full k-point grid
   LINTERFAST=   F  fast interpolation
   KINTER  =     0    interpolate to denser k-point grid
   CSHIFT  =0.1000    complex shift for real part using Kramers Kronig
   OMEGAMAX=  -1.0    maximum frequency
   DEG_THRESHOLD= 0.2000000E-02 threshold for treating states as degnerate
   RTIME   =   -0.100 relaxation time in fs
  (WPLASMAI=    0.000 imaginary part of plasma frequency in eV, 0.658/RTIME)
   DFIELD  = 0.0000000 0.0000000 0.0000000 field for delta impulse in time

 Orbital magnetization related:
   ORBITALMAG=     F  switch on orbital magnetization
   LCHIMAG   =     F  perturbation theory with respect to B field
   DQ        =  0.001000  dq finite difference perturbation B field
   LLRAUG    =     F  two centre corrections for induced B field



--------------------------------------------------------------------------------------------------------


 conjugate gradient relaxation of ions
 charge density and potential will be updated during run
 non-spin polarized calculation
 Variant of blocked Davidson
 Davidson routine will perform the subspace rotation
 perform sub-space diagonalisation
    after iterative eigenvector-optimisation
 modified Broyden-mixing scheme, WC =      100.0
 initial mixing is a Kerker type mixing with AMIX =  0.4000 and BMIX =      1.0000
 Hartree-type preconditioning will be used
 using additional bands            4
 reciprocal scheme for non local part
 use partial core corrections
 calculate Harris-corrections to forces   (improved forces if not selfconsistent)
 use gradient corrections 
 use of overlap-Matrix (Vanderbilt PP)
 Methfessel and Paxton  Order N= 1 SIGMA  =   0.20


--------------------------------------------------------------------------------------------------------


  energy-cutoff  :      400.00
  volume of cell :        6.01
      direct lattice vectors                 reciprocal lattice vectors
     1.053299960  0.000000000  0.000000000     0.949397169 -0.061007520 -0.145498518
     0.161741540  2.517016930  0.000000000     0.000000000  0.397295699 -0.201947584
     0.421806940  1.153239900  2.268792930     0.000000000  0.000000000  0.440763010

  length of vectors
     1.053299960  2.522208269  2.579787728     0.962417124  0.445675554  0.440763010



 k-points in units of 2pi/SCALE and weight: Automatic generation                    
   0.00000000  0.00000000  0.00000000       0.002
   0.07303055 -0.00469289 -0.01119219       0.004
   0.14606110 -0.00938577 -0.02238439       0.004
   0.21909165 -0.01407866 -0.03357658       0.004
   0.29212221 -0.01877154 -0.04476877       0.004
   0.36515276 -0.02346443 -0.05596097       0.004
   0.43818331 -0.02815732 -0.06715316       0.004
   0.00000000  0.06621595 -0.03365793       0.004
   0.07303055  0.06152306 -0.04485012       0.004
   0.14606110  0.05683018 -0.05604232       0.004
   0.21909165  0.05213729 -0.06723451       0.004
   0.29212221  0.04744441 -0.07842671       0.004
   0.36515276  0.04275152 -0.08961890       0.004
   0.43818331  0.03805863 -0.10081109       0.004
  -0.43818331  0.09437327  0.03349523       0.004
  -0.36515276  0.08968038  0.02230304       0.004
  -0.29212221  0.08498749  0.01111084       0.004
  -0.21909165  0.08029461 -0.00008135       0.004
  -0.14606110  0.07560172 -0.01127354       0.004
  -0.07303055  0.07090884 -0.02246574       0.004
   0.00000000  0.13243190 -0.06731586       0.004
   0.07303055  0.12773901 -0.07850806       0.004
   0.14606110  0.12304613 -0.08970025       0.004
   0.21909165  0.11835324 -0.10089244       0.004
   0.29212221  0.11366036 -0.11208464       0.004
   0.36515276  0.10896747 -0.12327683       0.004
   0.43818331  0.10427458 -0.13446902       0.004
  -0.43818331  0.16058922 -0.00016270       0.004
  -0.36515276  0.15589633 -0.01135489       0.004
  -0.29212221  0.15120344 -0.02254709       0.004
  -0.21909165  0.14651056 -0.03373928       0.004
  -0.14606110  0.14181767 -0.04493147       0.004
  -0.07303055  0.13712479 -0.05612367       0.004
   0.00000000  0.19864785 -0.10097379       0.002
   0.07303055  0.19395496 -0.11216599       0.004
   0.14606110  0.18926208 -0.12335818       0.004
   0.21909165  0.18456919 -0.13455037       0.004
   0.29212221  0.17987630 -0.14574257       0.004
   0.36515276  0.17518342 -0.15693476       0.004
   0.43818331  0.17049053 -0.16812695       0.004
   0.00000000  0.00000000  0.07346050       0.004
   0.07303055 -0.00469289  0.06226831       0.004
   0.14606110 -0.00938577  0.05107611       0.004
   0.21909165 -0.01407866  0.03988392       0.004
   0.29212221 -0.01877154  0.02869173       0.004
   0.36515276 -0.02346443  0.01749953       0.004
   0.43818331 -0.02815732  0.00630734       0.004
  -0.43818331  0.02815732  0.14061366       0.004
  -0.36515276  0.02346443  0.12942147       0.004
  -0.29212221  0.01877154  0.11822928       0.004
  -0.21909165  0.01407866  0.10703708       0.004
  -0.14606110  0.00938577  0.09584489       0.004
  -0.07303055  0.00469289  0.08465270       0.004
   0.00000000  0.06621595  0.03980257       0.004
   0.07303055  0.06152306  0.02861038       0.004
   0.14606110  0.05683018  0.01741818       0.004
   0.21909165  0.05213729  0.00622599       0.004
   0.29212221  0.04744441 -0.00496620       0.004
   0.36515276  0.04275152 -0.01615840       0.004
   0.43818331  0.03805863 -0.02735059       0.004
  -0.43818331  0.09437327  0.10695573       0.004
  -0.36515276  0.08968038  0.09576354       0.004
  -0.29212221  0.08498749  0.08457135       0.004
  -0.21909165  0.08029461  0.07337915       0.004
  -0.14606110  0.07560172  0.06218696       0.004
  -0.07303055  0.07090884  0.05099476       0.004
   0.00000000  0.13243190  0.00614464       0.004
   0.07303055  0.12773901 -0.00504755       0.004
   0.14606110  0.12304613 -0.01623975       0.004
   0.21909165  0.11835324 -0.02743194       0.004
   0.29212221  0.11366036 -0.03862413       0.004
   0.36515276  0.10896747 -0.04981633       0.004
   0.43818331  0.10427458 -0.06100852       0.004
  -0.43818331  0.16058922  0.07329780       0.004
  -0.36515276  0.15589633  0.06210561       0.004
  -0.29212221  0.15120344  0.05091341       0.004
  -0.21909165  0.14651056  0.03972122       0.004
  -0.14606110  0.14181767  0.02852903       0.004
  -0.07303055  0.13712479  0.01733683       0.004
   0.00000000  0.19864785 -0.02751329       0.004
   0.07303055  0.19395496 -0.03870548       0.004
   0.14606110  0.18926208 -0.04989768       0.004
   0.21909165  0.18456919 -0.06108987       0.004
   0.29212221  0.17987630 -0.07228207       0.004
   0.36515276  0.17518342 -0.08347426       0.004
   0.43818331  0.17049053 -0.09466645       0.004
  -0.43818331  0.22680517  0.03963987       0.004
  -0.36515276  0.22211228  0.02844768       0.004
  -0.29212221  0.21741939  0.01725548       0.004
  -0.21909165  0.21272651  0.00606329       0.004
  -0.14606110  0.20803362 -0.00512890       0.004
  -0.07303055  0.20334074 -0.01632110       0.004
   0.00000000 -0.13243190  0.14077636       0.004
   0.07303055 -0.13712479  0.12958417       0.004
   0.14606110 -0.14181767  0.11839198       0.004
   0.21909165 -0.14651056  0.10719978       0.004
   0.29212221 -0.15120344  0.09600759       0.004
   0.36515276 -0.15589633  0.08481539       0.004
   0.43818331 -0.16058922  0.07362320       0.004
  -0.43818331 -0.10427458  0.20792953       0.004
  -0.36515276 -0.10896747  0.19673733       0.004
  -0.29212221 -0.11366036  0.18554514       0.004
  -0.21909165 -0.11835324  0.17435294       0.004
  -0.14606110 -0.12304613  0.16316075       0.004
  -0.07303055 -0.12773901  0.15196856       0.004
   0.00000000 -0.06621595  0.10711843       0.004
   0.07303055 -0.07090884  0.09592624       0.004
   0.14606110 -0.07560172  0.08473404       0.004
   0.21909165 -0.08029461  0.07354185       0.004
   0.29212221 -0.08498749  0.06234966       0.004
   0.36515276 -0.08968038  0.05115746       0.004
   0.43818331 -0.09437327  0.03996527       0.004
  -0.43818331 -0.03805863  0.17427159       0.004
  -0.36515276 -0.04275152  0.16307940       0.004
  -0.29212221 -0.04744441  0.15188721       0.004
  -0.21909165 -0.05213729  0.14069501       0.004
  -0.14606110 -0.05683018  0.12950282       0.004
  -0.07303055 -0.06152306  0.11831063       0.004
   0.00000000  0.00000000  0.14692100       0.004
   0.07303055 -0.00469289  0.13572881       0.004
   0.14606110 -0.00938577  0.12453662       0.004
   0.21909165 -0.01407866  0.11334442       0.004
   0.29212221 -0.01877154  0.10215223       0.004
   0.36515276 -0.02346443  0.09096003       0.004
   0.43818331 -0.02815732  0.07976784       0.004
  -0.43818331  0.02815732  0.21407417       0.004
  -0.36515276  0.02346443  0.20288197       0.004
  -0.29212221  0.01877154  0.19168978       0.004
  -0.21909165  0.01407866  0.18049758       0.004
  -0.14606110  0.00938577  0.16930539       0.004
  -0.07303055  0.00469289  0.15811320       0.004
   0.00000000  0.06621595  0.11326307       0.004
   0.07303055  0.06152306  0.10207088       0.004
   0.14606110  0.05683018  0.09087869       0.004
   0.21909165  0.05213729  0.07968649       0.004
   0.29212221  0.04744441  0.06849430       0.004
   0.36515276  0.04275152  0.05730210       0.004
   0.43818331  0.03805863  0.04610991       0.004
  -0.43818331  0.09437327  0.18041623       0.004
  -0.36515276  0.08968038  0.16922404       0.004
  -0.29212221  0.08498749  0.15803185       0.004
  -0.21909165  0.08029461  0.14683965       0.004
  -0.14606110  0.07560172  0.13564746       0.004
  -0.07303055  0.07090884  0.12445527       0.004
   0.00000000  0.13243190  0.07960514       0.004
   0.07303055  0.12773901  0.06841295       0.004
   0.14606110  0.12304613  0.05722075       0.004
   0.21909165  0.11835324  0.04602856       0.004
   0.29212221  0.11366036  0.03483637       0.004
   0.36515276  0.10896747  0.02364417       0.004
   0.43818331  0.10427458  0.01245198       0.004
  -0.43818331  0.16058922  0.14675830       0.004
  -0.36515276  0.15589633  0.13556611       0.004
  -0.29212221  0.15120344  0.12437392       0.004
  -0.21909165  0.14651056  0.11318172       0.004
  -0.14606110  0.14181767  0.10198953       0.004
  -0.07303055  0.13712479  0.09079734       0.004
   0.00000000  0.19864785  0.04594721       0.004
   0.07303055  0.19395496  0.03475502       0.004
   0.14606110  0.18926208  0.02356282       0.004
   0.21909165  0.18456919  0.01237063       0.004
   0.29212221  0.17987630  0.00117844       0.004
   0.36515276  0.17518342 -0.01001376       0.004
   0.43818331  0.17049053 -0.02120595       0.004
  -0.43818331  0.22680517  0.11310037       0.004
  -0.36515276  0.22211228  0.10190818       0.004
  -0.29212221  0.21741939  0.09071599       0.004
  -0.21909165  0.21272651  0.07952379       0.004
  -0.14606110  0.20803362  0.06833160       0.004
  -0.07303055  0.20334074  0.05713940       0.004
   0.00000000 -0.13243190  0.21423686       0.004
   0.07303055 -0.13712479  0.20304467       0.004
   0.14606110 -0.14181767  0.19185248       0.004
   0.21909165 -0.14651056  0.18066028       0.004
   0.29212221 -0.15120344  0.16946809       0.004
   0.36515276 -0.15589633  0.15827590       0.004
   0.43818331 -0.16058922  0.14708370       0.004
  -0.43818331 -0.10427458  0.28139003       0.004
  -0.36515276 -0.10896747  0.27019783       0.004
  -0.29212221 -0.11366036  0.25900564       0.004
  -0.21909165 -0.11835324  0.24781345       0.004
  -0.14606110 -0.12304613  0.23662125       0.004
  -0.07303055 -0.12773901  0.22542906       0.004
   0.00000000 -0.06621595  0.18057893       0.004
   0.07303055 -0.07090884  0.16938674       0.004
   0.14606110 -0.07560172  0.15819455       0.004
   0.21909165 -0.08029461  0.14700235       0.004
   0.29212221 -0.08498749  0.13581016       0.004
   0.36515276 -0.08968038  0.12461797       0.004
   0.43818331 -0.09437327  0.11342577       0.004
  -0.43818331 -0.03805863  0.24773210       0.004
  -0.36515276 -0.04275152  0.23653990       0.004
  -0.29212221 -0.04744441  0.22534771       0.004
  -0.21909165 -0.05213729  0.21415551       0.004
  -0.14606110 -0.05683018  0.20296332       0.004
  -0.07303055 -0.06152306  0.19177113       0.004
   0.00000000  0.00000000  0.22038150       0.002
   0.07303055 -0.00469289  0.20918931       0.004
   0.14606110 -0.00938577  0.19799712       0.004
   0.21909165 -0.01407866  0.18680492       0.004
   0.29212221 -0.01877154  0.17561273       0.004
   0.36515276 -0.02346443  0.16442054       0.004
   0.43818331 -0.02815732  0.15322834       0.004
   0.00000000  0.06621595  0.18672357       0.004
   0.07303055  0.06152306  0.17553138       0.004
   0.14606110  0.05683018  0.16433919       0.004
   0.21909165  0.05213729  0.15314699       0.004
   0.29212221  0.04744441  0.14195480       0.004
   0.36515276  0.04275152  0.13076261       0.004
   0.43818331  0.03805863  0.11957041       0.004
  -0.43818331  0.09437327  0.25387674       0.004
  -0.36515276  0.08968038  0.24268454       0.004
  -0.29212221  0.08498749  0.23149235       0.004
  -0.21909165  0.08029461  0.22030016       0.004
  -0.14606110  0.07560172  0.20910796       0.004
  -0.07303055  0.07090884  0.19791577       0.004
   0.00000000  0.13243190  0.15306564       0.004
   0.07303055  0.12773901  0.14187345       0.004
   0.14606110  0.12304613  0.13068126       0.004
   0.21909165  0.11835324  0.11948906       0.004
   0.29212221  0.11366036  0.10829687       0.004
   0.36515276  0.10896747  0.09710467       0.004
   0.43818331  0.10427458  0.08591248       0.004
  -0.43818331  0.16058922  0.22021881       0.004
  -0.36515276  0.15589633  0.20902661       0.004
  -0.29212221  0.15120344  0.19783442       0.004
  -0.21909165  0.14651056  0.18664222       0.004
  -0.14606110  0.14181767  0.17545003       0.004
  -0.07303055  0.13712479  0.16425784       0.004
   0.00000000  0.19864785  0.11940771       0.002
   0.07303055  0.19395496  0.10821552       0.004
   0.14606110  0.18926208  0.09702333       0.004
   0.21909165  0.18456919  0.08583113       0.004
   0.29212221  0.17987630  0.07463894       0.004
   0.36515276  0.17518342  0.06344674       0.004
   0.43818331  0.17049053  0.05225455       0.004

 k-points in reciprocal lattice and weights: Automatic generation                    
   0.00000000  0.00000000  0.00000000       0.002
   0.07692308  0.00000000  0.00000000       0.004
   0.15384615  0.00000000  0.00000000       0.004
   0.23076923  0.00000000  0.00000000       0.004
   0.30769231  0.00000000  0.00000000       0.004
   0.38461538  0.00000000  0.00000000       0.004
   0.46153846  0.00000000  0.00000000       0.004
   0.00000000  0.16666667  0.00000000       0.004
   0.07692308  0.16666667  0.00000000       0.004
   0.15384615  0.16666667  0.00000000       0.004
   0.23076923  0.16666667  0.00000000       0.004
   0.30769231  0.16666667  0.00000000       0.004
   0.38461538  0.16666667  0.00000000       0.004
   0.46153846  0.16666667  0.00000000       0.004
  -0.46153846  0.16666667  0.00000000       0.004
  -0.38461538  0.16666667  0.00000000       0.004
  -0.30769231  0.16666667  0.00000000       0.004
  -0.23076923  0.16666667  0.00000000       0.004
  -0.15384615  0.16666667  0.00000000       0.004
  -0.07692308  0.16666667  0.00000000       0.004
   0.00000000  0.33333333  0.00000000       0.004
   0.07692308  0.33333333  0.00000000       0.004
   0.15384615  0.33333333  0.00000000       0.004
   0.23076923  0.33333333  0.00000000       0.004
   0.30769231  0.33333333  0.00000000       0.004
   0.38461538  0.33333333  0.00000000       0.004
   0.46153846  0.33333333  0.00000000       0.004
  -0.46153846  0.33333333  0.00000000       0.004
  -0.38461538  0.33333333  0.00000000       0.004
  -0.30769231  0.33333333  0.00000000       0.004
  -0.23076923  0.33333333  0.00000000       0.004
  -0.15384615  0.33333333  0.00000000       0.004
  -0.07692308  0.33333333  0.00000000       0.004
   0.00000000  0.50000000  0.00000000       0.002
   0.07692308  0.50000000  0.00000000       0.004
   0.15384615  0.50000000  0.00000000       0.004
   0.23076923  0.50000000  0.00000000       0.004
   0.30769231  0.50000000  0.00000000       0.004
   0.38461538  0.50000000  0.00000000       0.004
   0.46153846  0.50000000  0.00000000       0.004
   0.00000000  0.00000000  0.16666667       0.004
   0.07692308  0.00000000  0.16666667       0.004
   0.15384615  0.00000000  0.16666667       0.004
   0.23076923  0.00000000  0.16666667       0.004
   0.30769231  0.00000000  0.16666667       0.004
   0.38461538  0.00000000  0.16666667       0.004
   0.46153846  0.00000000  0.16666667       0.004
  -0.46153846  0.00000000  0.16666667       0.004
  -0.38461538  0.00000000  0.16666667       0.004
  -0.30769231  0.00000000  0.16666667       0.004
  -0.23076923  0.00000000  0.16666667       0.004
  -0.15384615  0.00000000  0.16666667       0.004
  -0.07692308  0.00000000  0.16666667       0.004
   0.00000000  0.16666667  0.16666667       0.004
   0.07692308  0.16666667  0.16666667       0.004
   0.15384615  0.16666667  0.16666667       0.004
   0.23076923  0.16666667  0.16666667       0.004
   0.30769231  0.16666667  0.16666667       0.004
   0.38461538  0.16666667  0.16666667       0.004
   0.46153846  0.16666667  0.16666667       0.004
  -0.46153846  0.16666667  0.16666667       0.004
  -0.38461538  0.16666667  0.16666667       0.004
  -0.30769231  0.16666667  0.16666667       0.004
  -0.23076923  0.16666667  0.16666667       0.004
  -0.15384615  0.16666667  0.16666667       0.004
  -0.07692308  0.16666667  0.16666667       0.004
   0.00000000  0.33333333  0.16666667       0.004
   0.07692308  0.33333333  0.16666667       0.004
   0.15384615  0.33333333  0.16666667       0.004
   0.23076923  0.33333333  0.16666667       0.004
   0.30769231  0.33333333  0.16666667       0.004
   0.38461538  0.33333333  0.16666667       0.004
   0.46153846  0.33333333  0.16666667       0.004
  -0.46153846  0.33333333  0.16666667       0.004
  -0.38461538  0.33333333  0.16666667       0.004
  -0.30769231  0.33333333  0.16666667       0.004
  -0.23076923  0.33333333  0.16666667       0.004
  -0.15384615  0.33333333  0.16666667       0.004
  -0.07692308  0.33333333  0.16666667       0.004
   0.00000000  0.50000000  0.16666667       0.004
   0.07692308  0.50000000  0.16666667       0.004
   0.15384615  0.50000000  0.16666667       0.004
   0.23076923  0.50000000  0.16666667       0.004
   0.30769231  0.50000000  0.16666667       0.004
   0.38461538  0.50000000  0.16666667       0.004
   0.46153846  0.50000000  0.16666667       0.004
  -0.46153846  0.50000000  0.16666667       0.004
  -0.38461538  0.50000000  0.16666667       0.004
  -0.30769231  0.50000000  0.16666667       0.004
  -0.23076923  0.50000000  0.16666667       0.004
  -0.15384615  0.50000000  0.16666667       0.004
  -0.07692308  0.50000000  0.16666667       0.004
   0.00000000 -0.33333333  0.16666667       0.004
   0.07692308 -0.33333333  0.16666667       0.004
   0.15384615 -0.33333333  0.16666667       0.004
   0.23076923 -0.33333333  0.16666667       0.004
   0.30769231 -0.33333333  0.16666667       0.004
   0.38461538 -0.33333333  0.16666667       0.004
   0.46153846 -0.33333333  0.16666667       0.004
  -0.46153846 -0.33333333  0.16666667       0.004
  -0.38461538 -0.33333333  0.16666667       0.004
  -0.30769231 -0.33333333  0.16666667       0.004
  -0.23076923 -0.33333333  0.16666667       0.004
  -0.15384615 -0.33333333  0.16666667       0.004
  -0.07692308 -0.33333333  0.16666667       0.004
   0.00000000 -0.16666667  0.16666667       0.004
   0.07692308 -0.16666667  0.16666667       0.004
   0.15384615 -0.16666667  0.16666667       0.004
   0.23076923 -0.16666667  0.16666667       0.004
   0.30769231 -0.16666667  0.16666667       0.004
   0.38461538 -0.16666667  0.16666667       0.004
   0.46153846 -0.16666667  0.16666667       0.004
  -0.46153846 -0.16666667  0.16666667       0.004
  -0.38461538 -0.16666667  0.16666667       0.004
  -0.30769231 -0.16666667  0.16666667       0.004
  -0.23076923 -0.16666667  0.16666667       0.004
  -0.15384615 -0.16666667  0.16666667       0.004
  -0.07692308 -0.16666667  0.16666667       0.004
   0.00000000  0.00000000  0.33333333       0.004
   0.07692308  0.00000000  0.33333333       0.004
   0.15384615  0.00000000  0.33333333       0.004
   0.23076923  0.00000000  0.33333333       0.004
   0.30769231  0.00000000  0.33333333       0.004
   0.38461538  0.00000000  0.33333333       0.004
   0.46153846  0.00000000  0.33333333       0.004
  -0.46153846  0.00000000  0.33333333       0.004
  -0.38461538  0.00000000  0.33333333       0.004
  -0.30769231  0.00000000  0.33333333       0.004
  -0.23076923  0.00000000  0.33333333       0.004
  -0.15384615  0.00000000  0.33333333       0.004
  -0.07692308  0.00000000  0.33333333       0.004
   0.00000000  0.16666667  0.33333333       0.004
   0.07692308  0.16666667  0.33333333       0.004
   0.15384615  0.16666667  0.33333333       0.004
   0.23076923  0.16666667  0.33333333       0.004
   0.30769231  0.16666667  0.33333333       0.004
   0.38461538  0.16666667  0.33333333       0.004
   0.46153846  0.16666667  0.33333333       0.004
  -0.46153846  0.16666667  0.33333333       0.004
  -0.38461538  0.16666667  0.33333333       0.004
  -0.30769231  0.16666667  0.33333333       0.004
  -0.23076923  0.16666667  0.33333333       0.004
  -0.15384615  0.16666667  0.33333333       0.004
  -0.07692308  0.16666667  0.33333333       0.004
   0.00000000  0.33333333  0.33333333       0.004
   0.07692308  0.33333333  0.33333333       0.004
   0.15384615  0.33333333  0.33333333       0.004
   0.23076923  0.33333333  0.33333333       0.004
   0.30769231  0.33333333  0.33333333       0.004
   0.38461538  0.33333333  0.33333333       0.004
   0.46153846  0.33333333  0.33333333       0.004
  -0.46153846  0.33333333  0.33333333       0.004
  -0.38461538  0.33333333  0.33333333       0.004
  -0.30769231  0.33333333  0.33333333       0.004
  -0.23076923  0.33333333  0.33333333       0.004
  -0.15384615  0.33333333  0.33333333       0.004
  -0.07692308  0.33333333  0.33333333       0.004
   0.00000000  0.50000000  0.33333333       0.004
   0.07692308  0.50000000  0.33333333       0.004
   0.15384615  0.50000000  0.33333333       0.004
   0.23076923  0.50000000  0.33333333       0.004
   0.30769231  0.50000000  0.33333333       0.004
   0.38461538  0.50000000  0.33333333       0.004
   0.46153846  0.50000000  0.33333333       0.004
  -0.46153846  0.50000000  0.33333333       0.004
  -0.38461538  0.50000000  0.33333333       0.004
  -0.30769231  0.50000000  0.33333333       0.004
  -0.23076923  0.50000000  0.33333333       0.004
  -0.15384615  0.50000000  0.33333333       0.004
  -0.07692308  0.50000000  0.33333333       0.004
   0.00000000 -0.33333333  0.33333333       0.004
   0.07692308 -0.33333333  0.33333333       0.004
   0.15384615 -0.33333333  0.33333333       0.004
   0.23076923 -0.33333333  0.33333333       0.004
   0.30769231 -0.33333333  0.33333333       0.004
   0.38461538 -0.33333333  0.33333333       0.004
   0.46153846 -0.33333333  0.33333333       0.004
  -0.46153846 -0.33333333  0.33333333       0.004
  -0.38461538 -0.33333333  0.33333333       0.004
  -0.30769231 -0.33333333  0.33333333       0.004
  -0.23076923 -0.33333333  0.33333333       0.004
  -0.15384615 -0.33333333  0.33333333       0.004
  -0.07692308 -0.33333333  0.33333333       0.004
   0.00000000 -0.16666667  0.33333333       0.004
   0.07692308 -0.16666667  0.33333333       0.004
   0.15384615 -0.16666667  0.33333333       0.004
   0.23076923 -0.16666667  0.33333333       0.004
   0.30769231 -0.16666667  0.33333333       0.004
   0.38461538 -0.16666667  0.33333333       0.004
   0.46153846 -0.16666667  0.33333333       0.004
  -0.46153846 -0.16666667  0.33333333       0.004
  -0.38461538 -0.16666667  0.33333333       0.004
  -0.30769231 -0.16666667  0.33333333       0.004
  -0.23076923 -0.16666667  0.33333333       0.004
  -0.15384615 -0.16666667  0.33333333       0.004
  -0.07692308 -0.16666667  0.33333333       0.004
   0.00000000  0.00000000  0.50000000       0.002
   0.07692308  0.00000000  0.50000000       0.004
   0.15384615  0.00000000  0.50000000       0.004
   0.23076923  0.00000000  0.50000000       0.004
   0.30769231  0.00000000  0.50000000       0.004
   0.38461538  0.00000000  0.50000000       0.004
   0.46153846  0.00000000  0.50000000       0.004
   0.00000000  0.16666667  0.50000000       0.004
   0.07692308  0.16666667  0.50000000       0.004
   0.15384615  0.16666667  0.50000000       0.004
   0.23076923  0.16666667  0.50000000       0.004
   0.30769231  0.16666667  0.50000000       0.004
   0.38461538  0.16666667  0.50000000       0.004
   0.46153846  0.16666667  0.50000000       0.004
  -0.46153846  0.16666667  0.50000000       0.004
  -0.38461538  0.16666667  0.50000000       0.004
  -0.30769231  0.16666667  0.50000000       0.004
  -0.23076923  0.16666667  0.50000000       0.004
  -0.15384615  0.16666667  0.50000000       0.004
  -0.07692308  0.16666667  0.50000000       0.004
   0.00000000  0.33333333  0.50000000       0.004
   0.07692308  0.33333333  0.50000000       0.004
   0.15384615  0.33333333  0.50000000       0.004
   0.23076923  0.33333333  0.50000000       0.004
   0.30769231  0.33333333  0.50000000       0.004
   0.38461538  0.33333333  0.50000000       0.004
   0.46153846  0.33333333  0.50000000       0.004
  -0.46153846  0.33333333  0.50000000       0.004
  -0.38461538  0.33333333  0.50000000       0.004
  -0.30769231  0.33333333  0.50000000       0.004
  -0.23076923  0.33333333  0.50000000       0.004
  -0.15384615  0.33333333  0.50000000       0.004
  -0.07692308  0.33333333  0.50000000       0.004
   0.00000000  0.50000000  0.50000000       0.002
   0.07692308  0.50000000  0.50000000       0.004
   0.15384615  0.50000000  0.50000000       0.004
   0.23076923  0.50000000  0.50000000       0.004
   0.30769231  0.50000000  0.50000000       0.004
   0.38461538  0.50000000  0.50000000       0.004
   0.46153846  0.50000000  0.50000000       0.004

 position of ions in fractional coordinates (direct lattice) 
   0.33628174  0.44133986  0.01782015
   0.76990394  0.11826252  0.43519280
   0.00000000  0.00000000  0.00000000

 position of ions in cartesian coordinates  (Angst):
   0.43310519  1.13141081  0.04043023
   1.01363509  0.79955047  0.98736235
   0.00000000  0.00000000  0.00000000



--------------------------------------------------------------------------------------------------------


 k-point  1 :   0.0000 0.0000 0.0000  plane waves:     111
 k-point  2 :   0.0769 0.0000 0.0000  plane waves:     114
 k-point  3 :   0.1538 0.0000 0.0000  plane waves:     109
 k-point  4 :   0.2308 0.0000 0.0000  plane waves:     110
 k-point  5 :   0.3077 0.0000 0.0000  plane waves:     107
 k-point  6 :   0.3846 0.0000 0.0000  plane waves:     107
 k-point  7 :   0.4615 0.0000 0.0000  plane waves:     107
 k-point  8 :   0.0000 0.1667 0.0000  plane waves:     112
 k-point  9 :   0.0769 0.1667 0.0000  plane waves:     109
 k-point 10 :   0.1538 0.1667 0.0000  plane waves:     108
 k-point 11 :   0.2308 0.1667 0.0000  plane waves:     107
 k-point 12 :   0.3077 0.1667 0.0000  plane waves:     106
 k-point 13 :   0.3846 0.1667 0.0000  plane waves:     106
 k-point 14 :   0.4615 0.1667 0.0000  plane waves:     112
 k-point 15 :  -0.4615 0.1667 0.0000  plane waves:     112
 k-point 16 :  -0.3846 0.1667 0.0000  plane waves:     109
 k-point 17 :  -0.3077 0.1667 0.0000  plane waves:     112
 k-point 18 :  -0.2308 0.1667 0.0000  plane waves:     110
 k-point 19 :  -0.1538 0.1667 0.0000  plane waves:     113
 k-point 20 :  -0.0769 0.1667 0.0000  plane waves:     114
 k-point 21 :   0.0000 0.3333 0.0000  plane waves:     107
 k-point 22 :   0.0769 0.3333 0.0000  plane waves:     105
 k-point 23 :   0.1538 0.3333 0.0000  plane waves:     108
 k-point 24 :   0.2308 0.3333 0.0000  plane waves:     108
 k-point 25 :   0.3077 0.3333 0.0000  plane waves:     107
 k-point 26 :   0.3846 0.3333 0.0000  plane waves:     108
 k-point 27 :   0.4615 0.3333 0.0000  plane waves:     109
 k-point 28 :  -0.4615 0.3333 0.0000  plane waves:     112
 k-point 29 :  -0.3846 0.3333 0.0000  plane waves:     108
 k-point 30 :  -0.3077 0.3333 0.0000  plane waves:     109
 k-point 31 :  -0.2308 0.3333 0.0000  plane waves:     107
 k-point 32 :  -0.1538 0.3333 0.0000  plane waves:     111
 k-point 33 :  -0.0769 0.3333 0.0000  plane waves:     113
 k-point 34 :   0.0000 0.5000 0.0000  plane waves:     108
 k-point 35 :   0.0769 0.5000 0.0000  plane waves:     108
 k-point 36 :   0.1538 0.5000 0.0000  plane waves:     110
 k-point 37 :   0.2308 0.5000 0.0000  plane waves:     111
 k-point 38 :   0.3077 0.5000 0.0000  plane waves:     108
 k-point 39 :   0.3846 0.5000 0.0000  plane waves:     111
 k-point 40 :   0.4615 0.5000 0.0000  plane waves:     110
 k-point 41 :   0.0000 0.0000 0.1667  plane waves:     111
 k-point 42 :   0.0769 0.0000 0.1667  plane waves:     111
 k-point 43 :   0.1538 0.0000 0.1667  plane waves:     112
 k-point 44 :   0.2308 0.0000 0.1667  plane waves:     109
 k-point 45 :   0.3077 0.0000 0.1667  plane waves:     105
 k-point 46 :   0.3846 0.0000 0.1667  plane waves:     108
 k-point 47 :   0.4615 0.0000 0.1667  plane waves:     108
 k-point 48 :  -0.4615 0.0000 0.1667  plane waves:     105
 k-point 49 :  -0.3846 0.0000 0.1667  plane waves:     105
 k-point 50 :  -0.3077 0.0000 0.1667  plane waves:     104
 k-point 51 :  -0.2308 0.0000 0.1667  plane waves:     108
 k-point 52 :  -0.1538 0.0000 0.1667  plane waves:     109
 k-point 53 :  -0.0769 0.0000 0.1667  plane waves:     110
 k-point 54 :   0.0000 0.1667 0.1667  plane waves:     112
 k-point 55 :   0.0769 0.1667 0.1667  plane waves:     111
 k-point 56 :   0.1538 0.1667 0.1667  plane waves:     112
 k-point 57 :   0.2308 0.1667 0.1667  plane waves:     108
 k-point 58 :   0.3077 0.1667 0.1667  plane waves:     111
 k-point 59 :   0.3846 0.1667 0.1667  plane waves:     109
 k-point 60 :   0.4615 0.1667 0.1667  plane waves:     112
 k-point 61 :  -0.4615 0.1667 0.1667  plane waves:     108
 k-point 62 :  -0.3846 0.1667 0.1667  plane waves:     108
 k-point 63 :  -0.3077 0.1667 0.1667  plane waves:     108
 k-point 64 :  -0.2308 0.1667 0.1667  plane waves:     111
 k-point 65 :  -0.1538 0.1667 0.1667  plane waves:     112
 k-point 66 :  -0.0769 0.1667 0.1667  plane waves:     111
 k-point 67 :   0.0000 0.3333 0.1667  plane waves:     111
 k-point 68 :   0.0769 0.3333 0.1667  plane waves:     107
 k-point 69 :   0.1538 0.3333 0.1667  plane waves:     106
 k-point 70 :   0.2308 0.3333 0.1667  plane waves:     111
 k-point 71 :   0.3077 0.3333 0.1667  plane waves:     109
 k-point 72 :   0.3846 0.3333 0.1667  plane waves:     109
 k-point 73 :   0.4615 0.3333 0.1667  plane waves:     111
 k-point 74 :  -0.4615 0.3333 0.1667  plane waves:     112
 k-point 75 :  -0.3846 0.3333 0.1667  plane waves:     110
 k-point 76 :  -0.3077 0.3333 0.1667  plane waves:     110
 k-point 77 :  -0.2308 0.3333 0.1667  plane waves:     111
 k-point 78 :  -0.1538 0.3333 0.1667  plane waves:     112
 k-point 79 :  -0.0769 0.3333 0.1667  plane waves:     112
 k-point 80 :   0.0000 0.5000 0.1667  plane waves:     107
 k-point 81 :   0.0769 0.5000 0.1667  plane waves:     106
 k-point 82 :   0.1538 0.5000 0.1667  plane waves:     110
 k-point 83 :   0.2308 0.5000 0.1667  plane waves:     110
 k-point 84 :   0.3077 0.5000 0.1667  plane waves:     110
 k-point 85 :   0.3846 0.5000 0.1667  plane waves:     112
 k-point 86 :   0.4615 0.5000 0.1667  plane waves:     108
 k-point 87 :  -0.4615 0.5000 0.1667  plane waves:     111
 k-point 88 :  -0.3846 0.5000 0.1667  plane waves:     108
 k-point 89 :  -0.3077 0.5000 0.1667  plane waves:     107
 k-point 90 :  -0.2308 0.5000 0.1667  plane waves:     110
 k-point 91 :  -0.1538 0.5000 0.1667  plane waves:     110
 k-point 92 :  -0.0769 0.5000 0.1667  plane waves:     112
 k-point 93 :   0.0000-0.3333 0.1667  plane waves:     107
 k-point 94 :   0.0769-0.3333 0.1667  plane waves:     109
 k-point 95 :   0.1538-0.3333 0.1667  plane waves:     111
 k-point 96 :   0.2308-0.3333 0.1667  plane waves:     110
 k-point 97 :   0.3077-0.3333 0.1667  plane waves:     107
 k-point 98 :   0.3846-0.3333 0.1667  plane waves:     108
 k-point 99 :   0.4615-0.3333 0.1667  plane waves:     112
 k-point ** :  -0.4615-0.3333 0.1667  plane waves:     112
 k-point ** :  -0.3846-0.3333 0.1667  plane waves:     108
 k-point ** :  -0.3077-0.3333 0.1667  plane waves:     106
 k-point ** :  -0.2308-0.3333 0.1667  plane waves:     108
 k-point ** :  -0.1538-0.3333 0.1667  plane waves:     110
 k-point ** :  -0.0769-0.3333 0.1667  plane waves:     109
 k-point ** :   0.0000-0.1667 0.1667  plane waves:     107
 k-point ** :   0.0769-0.1667 0.1667  plane waves:     107
 k-point ** :   0.1538-0.1667 0.1667  plane waves:     110
 k-point ** :   0.2308-0.1667 0.1667  plane waves:     108
 k-point ** :   0.3077-0.1667 0.1667  plane waves:     105
 k-point ** :   0.3846-0.1667 0.1667  plane waves:     110
 k-point ** :   0.4615-0.1667 0.1667  plane waves:     108
 k-point ** :  -0.4615-0.1667 0.1667  plane waves:     107
 k-point ** :  -0.3846-0.1667 0.1667  plane waves:     105
 k-point ** :  -0.3077-0.1667 0.1667  plane waves:     107
 k-point ** :  -0.2308-0.1667 0.1667  plane waves:     104
 k-point ** :  -0.1538-0.1667 0.1667  plane waves:     106
 k-point ** :  -0.0769-0.1667 0.1667  plane waves:     108
 k-point ** :   0.0000 0.0000 0.3333  plane waves:     114
 k-point ** :   0.0769 0.0000 0.3333  plane waves:     112
 k-point ** :   0.1538 0.0000 0.3333  plane waves:     110
 k-point ** :   0.2308 0.0000 0.3333  plane waves:     109
 k-point ** :   0.3077 0.0000 0.3333  plane waves:     105
 k-point ** :   0.3846 0.0000 0.3333  plane waves:     108
 k-point ** :   0.4615 0.0000 0.3333  plane waves:     110
 k-point ** :  -0.4615 0.0000 0.3333  plane waves:     108
 k-point ** :  -0.3846 0.0000 0.3333  plane waves:     108
 k-point ** :  -0.3077 0.0000 0.3333  plane waves:     106
 k-point ** :  -0.2308 0.0000 0.3333  plane waves:     108
 k-point ** :  -0.1538 0.0000 0.3333  plane waves:     110
 k-point ** :  -0.0769 0.0000 0.3333  plane waves:     111
 k-point ** :   0.0000 0.1667 0.3333  plane waves:     111
 k-point ** :   0.0769 0.1667 0.3333  plane waves:     113
 k-point ** :   0.1538 0.1667 0.3333  plane waves:     113
 k-point ** :   0.2308 0.1667 0.3333  plane waves:     109
 k-point ** :   0.3077 0.1667 0.3333  plane waves:     109
 k-point ** :   0.3846 0.1667 0.3333  plane waves:     107
 k-point ** :   0.4615 0.1667 0.3333  plane waves:     110
 k-point ** :  -0.4615 0.1667 0.3333  plane waves:     107
 k-point ** :  -0.3846 0.1667 0.3333  plane waves:     106
 k-point ** :  -0.3077 0.1667 0.3333  plane waves:     105
 k-point ** :  -0.2308 0.1667 0.3333  plane waves:     108
 k-point ** :  -0.1538 0.1667 0.3333  plane waves:     111
 k-point ** :  -0.0769 0.1667 0.3333  plane waves:     110
 k-point ** :   0.0000 0.3333 0.3333  plane waves:     112
 k-point ** :   0.0769 0.3333 0.3333  plane waves:     111
 k-point ** :   0.1538 0.3333 0.3333  plane waves:     108
 k-point ** :   0.2308 0.3333 0.3333  plane waves:     111
 k-point ** :   0.3077 0.3333 0.3333  plane waves:     113
 k-point ** :   0.3846 0.3333 0.3333  plane waves:     114
 k-point ** :   0.4615 0.3333 0.3333  plane waves:     112
 k-point ** :  -0.4615 0.3333 0.3333  plane waves:     110
 k-point ** :  -0.3846 0.3333 0.3333  plane waves:     107
 k-point ** :  -0.3077 0.3333 0.3333  plane waves:     107
 k-point ** :  -0.2308 0.3333 0.3333  plane waves:     109
 k-point ** :  -0.1538 0.3333 0.3333  plane waves:     108
 k-point ** :  -0.0769 0.3333 0.3333  plane waves:     109
 k-point ** :   0.0000 0.5000 0.3333  plane waves:     109
 k-point ** :   0.0769 0.5000 0.3333  plane waves:     110
 k-point ** :   0.1538 0.5000 0.3333  plane waves:     109
 k-point ** :   0.2308 0.5000 0.3333  plane waves:     108
 k-point ** :   0.3077 0.5000 0.3333  plane waves:     107
 k-point ** :   0.3846 0.5000 0.3333  plane waves:     113
 k-point ** :   0.4615 0.5000 0.3333  plane waves:     111
 k-point ** :  -0.4615 0.5000 0.3333  plane waves:     115
 k-point ** :  -0.3846 0.5000 0.3333  plane waves:     111
 k-point ** :  -0.3077 0.5000 0.3333  plane waves:     107
 k-point ** :  -0.2308 0.5000 0.3333  plane waves:     110
 k-point ** :  -0.1538 0.5000 0.3333  plane waves:     110
 k-point ** :  -0.0769 0.5000 0.3333  plane waves:     112
 k-point ** :   0.0000-0.3333 0.3333  plane waves:     113
 k-point ** :   0.0769-0.3333 0.3333  plane waves:     110
 k-point ** :   0.1538-0.3333 0.3333  plane waves:     108
 k-point ** :   0.2308-0.3333 0.3333  plane waves:     108
 k-point ** :   0.3077-0.3333 0.3333  plane waves:     108
 k-point ** :   0.3846-0.3333 0.3333  plane waves:     111
 k-point ** :   0.4615-0.3333 0.3333  plane waves:     106
 k-point ** :  -0.4615-0.3333 0.3333  plane waves:     112
 k-point ** :  -0.3846-0.3333 0.3333  plane waves:     110
 k-point ** :  -0.3077-0.3333 0.3333  plane waves:     108
 k-point ** :  -0.2308-0.3333 0.3333  plane waves:     108
 k-point ** :  -0.1538-0.3333 0.3333  plane waves:     111
 k-point ** :  -0.0769-0.3333 0.3333  plane waves:     109
 k-point ** :   0.0000-0.1667 0.3333  plane waves:     111
 k-point ** :   0.0769-0.1667 0.3333  plane waves:     109
 k-point ** :   0.1538-0.1667 0.3333  plane waves:     107
 k-point ** :   0.2308-0.1667 0.3333  plane waves:     106
 k-point ** :   0.3077-0.1667 0.3333  plane waves:     103
 k-point ** :   0.3846-0.1667 0.3333  plane waves:     110
 k-point ** :   0.4615-0.1667 0.3333  plane waves:     108
 k-point ** :  -0.4615-0.1667 0.3333  plane waves:     113
 k-point ** :  -0.3846-0.1667 0.3333  plane waves:     112
 k-point ** :  -0.3077-0.1667 0.3333  plane waves:     107
 k-point ** :  -0.2308-0.1667 0.3333  plane waves:     106
 k-point ** :  -0.1538-0.1667 0.3333  plane waves:     106
 k-point ** :  -0.0769-0.1667 0.3333  plane waves:     111
 k-point ** :   0.0000 0.0000 0.5000  plane waves:     114
 k-point ** :   0.0769 0.0000 0.5000  plane waves:     112
 k-point ** :   0.1538 0.0000 0.5000  plane waves:     107
 k-point ** :   0.2308 0.0000 0.5000  plane waves:     107
 k-point ** :   0.3077 0.0000 0.5000  plane waves:     106
 k-point ** :   0.3846 0.0000 0.5000  plane waves:     110
 k-point ** :   0.4615 0.0000 0.5000  plane waves:     107
 k-point ** :   0.0000 0.1667 0.5000  plane waves:     110
 k-point ** :   0.0769 0.1667 0.5000  plane waves:     113
 k-point ** :   0.1538 0.1667 0.5000  plane waves:     110
 k-point ** :   0.2308 0.1667 0.5000  plane waves:     103
 k-point ** :   0.3077 0.1667 0.5000  plane waves:     104
 k-point ** :   0.3846 0.1667 0.5000  plane waves:     112
 k-point ** :   0.4615 0.1667 0.5000  plane waves:     111
 k-point ** :  -0.4615 0.1667 0.5000  plane waves:     107
 k-point ** :  -0.3846 0.1667 0.5000  plane waves:     110
 k-point ** :  -0.3077 0.1667 0.5000  plane waves:     108
 k-point ** :  -0.2308 0.1667 0.5000  plane waves:     106
 k-point ** :  -0.1538 0.1667 0.5000  plane waves:     109
 k-point ** :  -0.0769 0.1667 0.5000  plane waves:     112
 k-point ** :   0.0000 0.3333 0.5000  plane waves:     114
 k-point ** :   0.0769 0.3333 0.5000  plane waves:     112
 k-point ** :   0.1538 0.3333 0.5000  plane waves:     112
 k-point ** :   0.2308 0.3333 0.5000  plane waves:     108
 k-point ** :   0.3077 0.3333 0.5000  plane waves:     109
 k-point ** :   0.3846 0.3333 0.5000  plane waves:     113
 k-point ** :   0.4615 0.3333 0.5000  plane waves:     116
 k-point ** :  -0.4615 0.3333 0.5000  plane waves:     110
 k-point ** :  -0.3846 0.3333 0.5000  plane waves:     110
 k-point ** :  -0.3077 0.3333 0.5000  plane waves:     105
 k-point ** :  -0.2308 0.3333 0.5000  plane waves:     108
 k-point ** :  -0.1538 0.3333 0.5000  plane waves:     111
 k-point ** :  -0.0769 0.3333 0.5000  plane waves:     113
 k-point ** :   0.0000 0.5000 0.5000  plane waves:     112
 k-point ** :   0.0769 0.5000 0.5000  plane waves:     110
 k-point ** :   0.1538 0.5000 0.5000  plane waves:     109
 k-point ** :   0.2308 0.5000 0.5000  plane waves:     107
 k-point ** :   0.3077 0.5000 0.5000  plane waves:     110
 k-point ** :   0.3846 0.5000 0.5000  plane waves:     110
 k-point ** :   0.4615 0.5000 0.5000  plane waves:     112

 maximum and minimum number of plane-waves per node :       116      103

 maximum number of plane-waves:       116
 maximum index in each direction: 
   IXMAX=    2   IYMAX=    4   IZMAX=    4
   IXMIN=   -2   IYMIN=   -4   IZMIN=   -4


 serial   3D FFT for wavefunctions
 parallel 3D FFT for charge:
    minimum data exchange during FFTs selected (reduces bandwidth)


 total amount of memory used by VASP MPI-rank0    37926. kBytes
=======================================================================

   base      :      30000. kBytes
   nonl-proj :       3509. kBytes
   fftplans  :        128. kBytes
   grid      :        233. kBytes
   one-center:          9. kBytes
   wavefun   :       4047. kBytes

     INWAV:  cpu time    0.0000: real time    0.0000
 Broyden mixing: mesh for mixing (old mesh)
   NGX =  3   NGY =  9   NGZ =  9
  (NGX  =  8   NGY  = 20   NGZ  = 20)
  gives a total of    243 points

 initial charge density was supplied:
 charge density of overlapping atoms calculated
 number of electron       8.0000000 magnetization 
 keeping initial charge density in first step


--------------------------------------------------------------------------------------------------------


 Maximum index for augmentation-charges          839 (set IRDMAX)


--------------------------------------------------------------------------------------------------------


 First call to EWALD:  gamma=   0.975
 Maximum number of real-space cells 4x 2x 2
 Maximum number of reciprocal cells 2x 4x 4

    FEWALD:  cpu time    0.0000: real time    0.0010


--------------------------------------- Iteration      1(   1)  ---------------------------------------


    POTLOK:  cpu time    0.0040: real time    0.0025
    SETDIJ:  cpu time    0.0200: real time    0.0210
     EDDAV:  cpu time    1.0760: real time    1.0812
       DOS:  cpu time    0.0080: real time    0.0081
    --------------------------------------------
      LOOP:  cpu time    1.1080: real time    1.1129

 eigenvalue-minimisations  :  4376
 total energy-change (2. order) : 0.1597034E+02  (-0.4809663E+03)
 number of electron       8.0000000 magnetization 
 augmentation part        8.0000000 magnetization 

 Free energy of the ion-electron system (eV)
  ---------------------------------------------------
  alpha Z        PSCENC =        37.28223002
  Ewald energy   TEWEN  =      -397.85509561
  -Hartree energ DENC   =      -112.95900473
  -exchange      EXHF   =         0.00000000
  -V(xc)+E(xc)   XCENC  =        38.63210703
  PAW double counting   =       350.81753176     -352.63395800
  entropy T*S    EENTRO =        -0.00071635
  eigenvalues    EBANDS =        -4.53321897
  atomic energy  EATOM  =       457.22046137
  Solvation  Ediel_sol  =         0.00000000
  ---------------------------------------------------
  free energy    TOTEN  =        15.97033651 eV

  energy without entropy =       15.97105287  energy(sigma->0) =       15.97057530


--------------------------------------------------------------------------------------------------------




--------------------------------------- Iteration      1(   2)  ---------------------------------------


     EDDAV:  cpu time    1.2080: real time    1.2132
       DOS:  cpu time    0.0040: real time    0.0045
    --------------------------------------------
      LOOP:  cpu time    1.2120: real time    1.2177

[...]
  band No.  band energies     occupation 
      1     -13.9973      2.00000
      2       9.0934      2.00000
      3      13.2303      2.00000
      4      14.5636      2.00000
      5      26.3730      0.00000
      6      27.8555      0.00000
      7      44.8665      0.00000
      8      47.0210      0.00000

 k-point   203 :       0.4615    0.0000    0.5000
  band No.  band energies     occupation 
      1     -11.9074      2.00000
      2      11.2924      2.00000
      3      15.1270      2.06482
      4      17.5658     -0.00000
      5      30.2282      0.00000
      6      33.6647      0.00000
      7      38.0507      0.00000
      8      44.7346      0.00000

 k-point   204 :       0.0000    0.1667    0.5000
  band No.  band energies     occupation 
      1     -23.4574      2.00000
      2      -8.4946      2.00000
      3      -4.4321      2.00000
      4       8.6547      2.00000
      5      10.8064      2.00000
      6      29.7765      0.00000
      7      40.8551      0.00000
      8      42.1409      0.00000

 k-point   205 :       0.0769    0.1667    0.5000
  band No.  band energies     occupation 
      1     -23.0779      2.00000
      2      -7.6250      2.00000
      3      -3.4148      2.00000
      4       9.2313      2.00000
      5      11.1501      2.00000
      6      30.4669      0.00000
      7      40.0909      0.00000
      8      42.8087      0.00000

 k-point   206 :       0.1538    0.1667    0.5000
  band No.  band energies     occupation 
      1     -21.8057      2.00000
      2      -5.2237      2.00000
      3      -0.9686      2.00000
      4      11.2215      2.00000
      5      12.8599      2.00000
      6      31.7216      0.00000
      7      37.1151      0.00000
      8      43.8102      0.00000

 k-point   207 :       0.2308    0.1667    0.5000
  band No.  band energies     occupation 
      1     -19.7083      2.00000
      2      -1.3593      2.00000
      3       2.8120      2.00000
      4      14.1609      2.00000
      5      16.1299     -0.00000
      6      29.1006      0.00000
      7      37.0815      0.00000
      8      45.9039      0.00000

 k-point   208 :       0.3077    0.1667    0.5000
  band No.  band energies     occupation 
      1     -16.9788      2.00000
      2       3.7948      2.00000
      3       7.6904      2.00000
      4      16.4053     -0.00000
      5      21.1795      0.00000
      6      24.9779      0.00000
      7      41.1691      0.00000
      8      48.4779      0.00000

 k-point   209 :       0.3846    0.1667    0.5000
  band No.  band energies     occupation 
      1     -14.0651      2.00000
      2       9.6206      2.00000
      3      13.0281      2.00000
      4      14.8238      2.00033
      5      26.0993      0.00000
      6      27.9147      0.00000
      7      44.3110      0.00000
      8      45.7022      0.00000

 k-point   210 :       0.4615    0.1667    0.5000
  band No.  band energies     occupation 
      1     -11.9293      2.00000
      2      11.1826      2.00000
      3      15.8720     -0.00454
      4      17.2851     -0.00000
      5      30.1338      0.00000
      6      33.9074      0.00000
      7      38.6973      0.00000
      8      40.4479      0.00000

 k-point   211 :      -0.4615    0.1667    0.5000
  band No.  band energies     occupation 
      1     -11.8663      2.00000
      2      11.5704      2.00000
      3      15.2446      1.97698
      4      16.6539     -0.00000
      5      30.7113      0.00000
      6      33.0214      0.00000
      7      37.7994      0.00000
      8      45.5748      0.00000

 k-point   212 :      -0.3846    0.1667    0.5000
  band No.  band energies     occupation 
      1     -13.8893      2.00000
      2       9.4689      2.00000
      3      11.5231      2.00000
      4      15.0862      2.04745
      5      26.6414      0.00000
      6      27.8286      0.00000
      7      45.3595      0.00000
      8      48.2702      0.00000

 k-point   213 :      -0.3077    0.1667    0.5000
  band No.  band energies     occupation 
      1     -16.7271      2.00000
      2       3.3396      2.00000
      3       5.9933      2.00000
      4      18.8765     -0.00000
      5      21.9543      0.00000
      6      23.1131      0.00000
      7      42.3809      0.00000
      8      51.5595      0.00000

 k-point   214 :      -0.2308    0.1667    0.5000
  band No.  band energies     occupation 
      1     -19.4350      2.00000
      2      -1.7917      2.00000
      3       1.3147      2.00000
      4      15.5958     -0.04149
      5      17.6057     -0.00000
      6      26.7522      0.00000
      7      39.1831      0.00000
      8      47.4671      0.00000

 k-point   215 :      -0.1538    0.1667    0.5000
  band No.  band energies     occupation 
      1     -21.5745      2.00000
      2      -5.5525      2.00000
      3      -2.0569      2.00000
      4      11.9238      2.00000
      5      14.0825      2.00000
      6      29.8272      0.00000
      7      39.4963      0.00000
      8      44.2788      0.00000

 k-point   216 :      -0.0769    0.1667    0.5000
  band No.  band energies     occupation 
      1     -22.9456      2.00000
      2      -7.8031      2.00000
      3      -3.9824      2.00000
      4       9.5573      2.00000
      5      11.7866      2.00000
      6      29.8966      0.00000
      7      41.2118      0.00000
      8      42.5147      0.00000

 k-point   217 :       0.0000    0.3333    0.5000
  band No.  band energies     occupation 
      1     -23.3753      2.00000
      2      -7.9386      2.00000
      3      -5.0581      2.00000
      4       6.4576      2.00000
      5      12.4878      2.00000
      6      30.0592      0.00000
      7      39.8196      0.00000
      8      44.3118      0.00000

 k-point   218 :       0.0769    0.3333    0.5000
  band No.  band energies     occupation 
      1     -22.9958      2.00000
      2      -7.1306      2.00000
      3      -3.9440      2.00000
      4       6.8792      2.00000
      5      12.9965      2.00000
      6      30.7756      0.00000
      7      39.2747      0.00000
      8      44.9283      0.00000

 k-point   219 :       0.1538    0.3333    0.5000
  band No.  band energies     occupation 
      1     -21.7280      2.00000
      2      -4.8006      2.00000
      3      -1.4063      2.00000
      4       8.7829      2.00000
      5      14.8022      2.00018
      6      32.0612      0.00000
      7      36.6716      0.00000
      8      44.9146      0.00000

 k-point   220 :       0.2308    0.3333    0.5000
  band No.  band energies     occupation 
      1     -19.6398      2.00000
      2      -1.0172      2.00000
      3       2.4508      2.00000
      4      12.0387      2.00000
      5      17.7903     -0.00000
      6      29.0653      0.00000
      7      37.0322      0.00000
      8      46.8822      0.00000

 k-point   221 :       0.3077    0.3333    0.5000
  band No.  band energies     occupation 
      1     -16.9230      2.00000
      2       4.0403      2.00000
      3       7.4091      2.00000
      4      15.6615     -0.06970
      5      21.2673      0.00000
      6      25.0364      0.00000
      7      41.1384      0.00000
      8      49.7150      0.00000

 k-point   222 :       0.3846    0.3333    0.5000
  band No.  band energies     occupation 
      1     -14.0279      2.00000
      2       9.7557      2.00000
      3      12.8683      2.00000
      4      14.9342      2.00449
      5      24.9068      0.00000
      6      28.3607      0.00000
      7      44.1072      0.00000
      8      46.3148      0.00000

 k-point   223 :       0.4615    0.3333    0.5000
  band No.  band energies     occupation 
      1     -11.9090      2.00000
      2      11.3806      2.00000
      3      15.9259     -0.00138
      4      17.0466     -0.00000
      5      30.3158      0.00000
      6      33.2453      0.00000
      7      37.6994      0.00000
      8      41.0024      0.00000

 k-point   224 :      -0.4615    0.3333    0.5000
  band No.  band energies     occupation 
      1     -11.8450      2.00000
      2      11.8143      2.00000
      3      15.4196      0.86352
      4      16.2456     -0.00000
      5      30.8180      0.00000
      6      32.5307      0.00000
      7      37.4738      0.00000
      8      45.2472      0.00000

 k-point   225 :      -0.3846    0.3333    0.5000
  band No.  band energies     occupation 
      1     -13.8487      2.00000
      2       9.9787      2.00000
      3      10.9108      2.00000
      4      15.2150      2.03607
      5      25.5879      0.00000
      6      28.3224      0.00000
      7      45.0900      0.00000
      8      48.1851      0.00000

 k-point   226 :      -0.3077    0.3333    0.5000
  band No.  band energies     occupation 
      1     -16.6648      2.00000
      2       3.9951      2.00000
      3       5.1584      2.00000
      4      18.5212     -0.00000
      5      21.6739      0.00000
      6      23.3770      0.00000
      7      42.2405      0.00000
      8      52.2657      0.00000

 k-point   227 :      -0.2308    0.3333    0.5000
  band No.  band energies     occupation 
      1     -19.3611      2.00000
      2      -1.1164      2.00000
      3       0.4553      2.00000
      4      14.0207      2.00000
      5      18.8698     -0.00000
      6      26.7044      0.00000
      7      39.0680      0.00000
      8      48.7162      0.00000

 k-point   228 :      -0.1538    0.3333    0.5000
  band No.  band energies     occupation 
      1     -21.4939      2.00000
      2      -4.9009      2.00000
      3      -2.8592      2.00000
      4      10.0982      2.00000
      5      15.4734      0.44550
      6      30.0229      0.00000
      7      39.2226      0.00000
      8      45.7409      0.00000

 k-point   229 :      -0.0769    0.3333    0.5000
  band No.  band energies     occupation 
      1     -22.8619      2.00000
      2      -7.1944      2.00000
      3      -4.7017      2.00000
      4       7.5436      2.00000
      5      13.3197      2.00000
      6      30.1546      0.00000
      7      40.3824      0.00000
      8      44.9534      0.00000

 k-point   230 :       0.0000    0.5000    0.5000
  band No.  band energies     occupation 
      1     -23.3187      2.00000
      2      -8.6083      2.00000
      3      -3.3840      2.00000
      4       3.6976      2.00000
      5      13.8373      2.00000
      6      33.0655      0.00000
      7      37.3148      0.00000
      8      42.4263      0.00000

 k-point   231 :       0.0769    0.5000    0.5000
  band No.  band energies     occupation 
      1     -22.8725      2.00000
      2      -7.8271      2.00000
      3      -2.6933      2.00000
      4       4.5057      2.00000
      5      14.4874      2.00000
      6      33.5871      0.00000
      7      37.0302      0.00000
      8      43.2758      0.00000

 k-point   232 :       0.1538    0.5000    0.5000
  band No.  band energies     occupation 
      1     -21.5608      2.00000
      2      -5.5075      2.00000
      3      -0.6302      2.00000
      4       6.9036      2.00000
      5      16.3906     -0.00000
      6      33.5757      0.00000
      7      36.0385      0.00000
      8      45.4486      0.00000

 k-point   233 :       0.2308    0.5000    0.5000
  band No.  band energies     occupation 
      1     -19.4594      2.00000
      2      -1.7091      2.00000
      3       2.7625      2.00000
      4      10.7775      2.00000
      5      19.4384     -0.00000
      6      28.3487      0.00000
      7      38.6839      0.00000
      8      47.7667      0.00000

 k-point   234 :       0.3077    0.5000    0.5000
  band No.  band energies     occupation 
      1     -16.7641      2.00000
      2       3.4190      2.00000
      3       7.3408      2.00000
      4      15.4204      0.85629
      5      22.0359      0.00000
      6      24.4455      0.00000
      7      42.5429      0.00000
      8      51.1771      0.00000

 k-point   235 :       0.3846    0.5000    0.5000
  band No.  band energies     occupation 
      1     -13.9184      2.00000
      2       9.4250      2.00000
      3      12.6545      2.00000
      4      14.9419      2.00524
      5      24.4151      0.00000
      6      28.5291      0.00000
      7      44.3561      0.00000
      8      47.6926      0.00000

 k-point   236 :       0.4615    0.5000    0.5000
  band No.  band energies     occupation 
      1     -11.8659      2.00000
      2      11.7605      2.00000
      3      15.1035      2.05538
      4      17.1666     -0.00000
      5      30.5280      0.00000
      6      32.4627      0.00000
      7      37.2968      0.00000
      8      44.2567      0.00000


--------------------------------------------------------------------------------------------------------


 soft charge-density along one line, spin component           1
         0         1         2         3         4         5         6         7         8         9
 total charge-density along one line

 pseudopotential strength for first ion, spin component:           1
 -2.116  -3.606   0.000  -0.000   0.000
 -3.606  -6.056   0.000  -0.000   0.000
  0.000   0.000  -0.387  -0.000  -0.000
 -0.000  -0.000  -0.000  -0.387  -0.000
  0.000   0.000  -0.000  -0.000  -0.386
 total augmentation occupancy for first ion, spin component:           1
  3.517  -0.703  -0.015   0.001  -0.001
 -0.703   0.229   0.006   0.000   0.000
 -0.015   0.006   0.031  -0.000   0.001
  0.001   0.000  -0.000   0.028   0.003
 -0.001   0.000   0.001   0.003   0.053


------------------------ aborting loop because EDIFF is reached ----------------------------------------


    CHARGE:  cpu time    0.0720: real time    0.0716
    FORLOC:  cpu time    0.0000: real time    0.0002
    FORNL :  cpu time    0.0680: real time    0.0679
    STRESS:  cpu time    0.3040: real time    0.3048
    FORCOR:  cpu time    0.0040: real time    0.0019
    FORHAR:  cpu time    0.0000: real time    0.0007
    MIXING:  cpu time    0.0000: real time    0.0001
    OFIELD:  cpu time    0.0000: real time    0.0000

  FORCE on cell =-STRESS in cart. coord.  units (eV):
  Direction    XX          YY          ZZ          XY          YZ          ZX
  --------------------------------------------------------------------------------------
  Alpha Z    37.28223    37.28223    37.28223
  Ewald     100.43201  -257.63965  -261.35293     0.24805    -5.58574     0.37490
  Hartree   101.01413     3.26536     0.73962     0.03222    -1.83899     0.04588
  E(xc)     -39.04335   -39.90616   -39.92568     0.00564    -0.02145     0.00934
  Local    -275.98069   107.40142   113.98997    -0.27685     7.17202    -0.36814
  n-local   -35.52831   -30.67779   -30.43018    -0.02437     0.07855    -0.01282
  augment     2.76215     8.30683     8.24972     0.00125    -0.03327    -0.01901
  Kinetic   162.40112   189.89884   190.15849    -0.22709    -0.58849    -0.88914
  Fock        0.00000     0.00000     0.00000     0.00000     0.00000     0.00000
  -------------------------------------------------------------------------------------
  Total      53.33928    17.93110    18.71123    -0.24116    -0.81736    -0.85899
  in kB   14207.72970  4776.22009  4984.01970   -64.23749  -217.71635  -228.80406
  external pressure =    -2010.68 kB  Pullay stress =    10000.00 kB


 VOLUME and BASIS-vectors are now :
 -----------------------------------------------------------------------------
  energy-cutoff  :      400.00
  volume of cell :        6.01
      direct lattice vectors                 reciprocal lattice vectors
     1.053299960  0.000000000  0.000000000     0.949397169 -0.061007520 -0.145498518
     0.161741540  2.517016930  0.000000000     0.000000000  0.397295699 -0.201947584
     0.421806940  1.153239900  2.268792930     0.000000000  0.000000000  0.440763010

  length of vectors
     1.053299960  2.522208269  2.579787728     0.962417124  0.445675554  0.440763010


 FORCES acting on ions
    electron-ion (+dipol)            ewald-force                    non-local-force                 convergence-correction
 -----------------------------------------------------------------------------------------------
   0.267E-02 -.193E+01 0.167E+01   0.276E-01 0.223E+01 -.170E+01   -.978E-03 -.105E+00 0.426E-01   0.975E-05 0.377E-03 0.189E-04
   0.355E+00 0.138E+01 -.260E+01   -.195E+00 -.168E+01 0.263E+01   0.160E+00 0.444E-01 -.128E+00   0.374E-04 -.622E-03 0.238E-03
   -.128E+00 0.601E+00 0.104E+01   0.167E+00 -.552E+00 -.932E+00   -.400E+00 0.610E-02 -.244E-01   -.551E-03 0.311E-02 -.299E-02
 -----------------------------------------------------------------------------------------------
   0.229E+00 0.514E-01 0.113E+00   -.140E-13 0.000E+00 -.222E-15   -.241E+00 -.541E-01 -.110E+00   -.504E-03 0.286E-02 -.274E-02


 POSITION                                       TOTAL-FORCE (eV/Angst)
 -----------------------------------------------------------------------------------
      0.09237      1.04234     -0.43501         0.033230      0.194817      0.018965
      1.22208      1.08174      1.11700         0.324024     -0.253098     -0.099808
      0.13230     -0.19312      0.34581        -0.357254      0.058282      0.080843
 -----------------------------------------------------------------------------------
    total drift:                               -0.011909      0.000178      0.000256


--------------------------------------------------------------------------------------------------------



  FREE ENERGIE OF THE ION-ELECTRON SYSTEM (eV)
  ---------------------------------------------------
  free  energy   TOTEN  =         5.56502673 eV

  energy  without entropy=        5.56564549  energy(sigma->0) =        5.56523299
  enthalpy is  TOTEN    =        43.10746559 eV   P V=       37.54243886

 d Force = 0.1623257E-01[ 0.129E-01, 0.196E-01]  d Energy = 0.1625297E-01-0.204E-04
 d Force = 0.6844641E-01[ 0.495E-01, 0.874E-01]  d Ewald  = 0.6835456E-01 0.918E-04


--------------------------------------------------------------------------------------------------------


    POTLOK:  cpu time    0.0080: real time    0.0056


--------------------------------------------------------------------------------------------------------


 Conjugate gradient step on ions:
 trial-energy change:   -0.016253  1 .order   -0.016233   -0.019589   -0.012876
  (g-gl).g = 0.416E-01      g.g   = 0.338E-01  gl.gl    = 0.647E+00
 g(Force)  = 0.338E-01   g(Stress)= 0.000E+00 ortho     =-0.305E-03
 gamma     =   0.06421
 trial     =   0.57978
 opt step  =   1.69173  (harmonic =   1.69173) maximal distance =0.03469761
 next E    =    43.095139   (d E  =  -0.02858)


--------------------------------------------------------------------------------------------------------


  
 reached required accuracy - stopping structural energy minimisation
     LOOP+:  cpu time    4.8880: real time    4.8900
    4ORBIT:  cpu time    0.0000: real time    0.0000

 total amount of memory used by VASP MPI-rank0    37926. kBytes
=======================================================================

   base      :      30000. kBytes
   nonl-proj :       3509. kBytes
   fftplans  :        128. kBytes
   grid      :        233. kBytes
   one-center:          9. kBytes
   wavefun   :       4047. kBytes

  
  
 General timing and accounting informations for this job:
 ========================================================
  
                  Total CPU time used (sec):       94.144
                            User time (sec):       94.024
                          System time (sec):        0.120
                         Elapsed time (sec):       94.307
  
                   Maximum memory used (kb):       42336.
                   Average memory used (kb):           0.
  
                          Minor page faults:         3634
                          Major page faults:            0
                 Voluntary context switches:            5
